<?xml version="1.0" encoding="UTF-8"?>

<!-- generated on 2025-02-14 15:45:49 by Eclipse SUMO GUI Version 1.22.0
<sumoConfiguration xmlns:xsi="http://www.w3.org/2001/XMLSchema-instance" xsi:noNamespaceSchemaLocation="http://sumo.dlr.de/xsd/sumoConfiguration.xsd">

    <input>
        <net-file value="C:\Users\pukar\OneDrive\Desktop\Sumo Repos\CS690MiniProj1\CS690-MiniProj1\lyons\PM\lyons.net.xml"/>
        <route-files value="C:\Users\pukar\OneDrive\Desktop\Sumo Repos\CS690MiniProj1\CS690-MiniProj1\lyons\PM\lyons_PM.rou.xml"/>
        <additional-files value="C:\Users\pukar\OneDrive\Desktop\Sumo Repos\CS690MiniProj1\CS690-MiniProj1\lyons\PM\detectors.add.xml"/>
    </input>

    <output>
        <tripinfo-output value="C:\Users\pukar\OneDrive\Desktop\Sumo Repos\CS690MiniProj1\CS690-MiniProj1\lyons\PM\tripinfo.xml"/>
    </output>

</sumoConfiguration>
-->

<tripinfos xmlns:xsi="http://www.w3.org/2001/XMLSchema-instance" xsi:noNamespaceSchemaLocation="http://sumo.dlr.de/xsd/tripinfo_file.xsd">
    <tripinfo id="3" depart="3.00" departLane="682553774#2_0" departPos="5.10" departSpeed="0.00" departDelay="0.00" arrival="29.00" arrivalLane="-14024835#2_0" arrivalPos="97.10" arrivalSpeed="19.85" duration="26.00" routeLength="329.62" waitingTime="0.00" waitingCount="0" stopTime="0.00" timeLoss="9.79" rerouteNo="1" devices="tripinfo_3 routing_3" vType="DEFAULT_VEHTYPE" speedFactor="0.94" vaporized=""/>
    <tripinfo id="4" depart="4.00" departLane="-683043814#4_0" departPos="5.10" departSpeed="0.00" departDelay="0.00" arrival="54.00" arrivalLane="-14019622#1_0" arrivalPos="77.07" arrivalSpeed="13.61" duration="50.00" routeLength="523.26" waitingTime="0.00" waitingCount="0" stopTime="0.00" timeLoss="10.24" rerouteNo="1" devices="tripinfo_4 routing_4" vType="DEFAULT_VEHTYPE" speedFactor="1.01" vaporized=""/>
    <tripinfo id="9" depart="9.00" departLane="14027172#2_0" departPos="5.10" departSpeed="0.00" departDelay="0.00" arrival="84.00" arrivalLane="-14019569#3_0" arrivalPos="40.14" arrivalSpeed="13.54" duration="75.00" routeLength="537.22" waitingTime="11.00" waitingCount="2" stopTime="0.00" timeLoss="29.18" rerouteNo="1" devices="tripinfo_9 routing_9" vType="DEFAULT_VEHTYPE" speedFactor="1.03" vaporized=""/>
    <tripinfo id="35" depart="35.00" departLane="-14026096#5_0" departPos="0.20" departSpeed="0.00" departDelay="0.00" arrival="87.00" arrivalLane="683044783#4_0" arrivalPos="35.02" arrivalSpeed="7.09" duration="52.00" routeLength="467.00" waitingTime="0.00" waitingCount="0" stopTime="0.00" timeLoss="6.47" rerouteNo="1" devices="tripinfo_35 routing_35" vType="DEFAULT_VEHTYPE" speedFactor="0.88" vaporized=""/>
    <tripinfo id="33" depart="33.00" departLane="-14026251#0_0" departPos="5.10" departSpeed="0.00" departDelay="0.00" arrival="105.00" arrivalLane="-14019623_0" arrivalPos="99.25" arrivalSpeed="13.05" duration="72.00" routeLength="685.26" waitingTime="0.00" waitingCount="0" stopTime="0.00" timeLoss="15.61" rerouteNo="1" devices="tripinfo_33 routing_33" vType="DEFAULT_VEHTYPE" speedFactor="0.99" vaporized=""/>
    <tripinfo id="7" depart="7.00" departLane="14025708#1_0" departPos="5.10" departSpeed="0.00" departDelay="0.00" arrival="106.00" arrivalLane="14024684#7_0" arrivalPos="27.87" arrivalSpeed="11.38" duration="99.00" routeLength="1205.69" waitingTime="0.00" waitingCount="0" stopTime="0.00" timeLoss="17.58" rerouteNo="1" devices="tripinfo_7 routing_7" vType="DEFAULT_VEHTYPE" speedFactor="1.08" vaporized=""/>
    <tripinfo id="1" depart="1.00" departLane="-14026436_0" departPos="5.10" departSpeed="0.00" departDelay="0.00" arrival="116.00" arrivalLane="-14026251#1_0" arrivalPos="41.17" arrivalSpeed="13.28" duration="115.00" routeLength="1272.38" waitingTime="1.00" waitingCount="1" stopTime="0.00" timeLoss="27.24" rerouteNo="1" devices="tripinfo_1 routing_1" vType="DEFAULT_VEHTYPE" speedFactor="1.06" vaporized=""/>
    <tripinfo id="41" depart="41.00" departLane="14025159#0_0" departPos="5.10" departSpeed="0.00" departDelay="0.00" arrival="117.00" arrivalLane="682553777#1_0" arrivalPos="111.94" arrivalSpeed="26.17" duration="76.00" routeLength="936.75" waitingTime="0.00" waitingCount="0" stopTime="0.00" timeLoss="18.48" rerouteNo="1" devices="tripinfo_41 routing_41" vType="DEFAULT_VEHTYPE" speedFactor="1.16" vaporized=""/>
    <tripinfo id="88" depart="88.00" departLane="-14025159#0_0" departPos="5.10" departSpeed="0.00" departDelay="0.00" arrival="121.00" arrivalLane="-683044783#6_0" arrivalPos="110.32" arrivalSpeed="9.19" duration="33.00" routeLength="287.17" waitingTime="0.00" waitingCount="0" stopTime="0.00" timeLoss="4.90" rerouteNo="1" devices="tripinfo_88 routing_88" vType="DEFAULT_VEHTYPE" speedFactor="1.04" vaporized=""/>
    <tripinfo id="28" depart="28.00" departLane="-14025894#0_0" departPos="5.10" departSpeed="0.00" departDelay="0.00" arrival="124.00" arrivalLane="14026251#9_0" arrivalPos="47.79" arrivalSpeed="14.64" duration="96.00" routeLength="975.31" waitingTime="0.00" waitingCount="0" stopTime="0.00" timeLoss="23.69" rerouteNo="1" devices="tripinfo_28 routing_28" vType="DEFAULT_VEHTYPE" speedFactor="1.09" vaporized=""/>
    <tripinfo id="19" depart="19.00" departLane="682551442#2_0" departPos="5.10" departSpeed="0.00" departDelay="0.00" arrival="128.00" arrivalLane="14024875_0" arrivalPos="0.20" arrivalSpeed="5.49" duration="109.00" routeLength="1263.47" waitingTime="0.00" waitingCount="0" stopTime="0.00" timeLoss="14.79" rerouteNo="1" devices="tripinfo_19 routing_19" vType="DEFAULT_VEHTYPE" speedFactor="1.05" vaporized=""/>
    <tripinfo id="32" depart="32.00" departLane="625743593_0" departPos="5.10" departSpeed="0.00" departDelay="0.00" arrival="129.00" arrivalLane="14026504#7_0" arrivalPos="47.00" arrivalSpeed="15.06" duration="97.00" routeLength="1297.70" waitingTime="0.00" waitingCount="0" stopTime="0.00" timeLoss="15.08" rerouteNo="1" devices="tripinfo_32 routing_32" vType="DEFAULT_VEHTYPE" speedFactor="1.12" vaporized=""/>
    <tripinfo id="12" depart="12.00" departLane="683047943#1_0" departPos="5.10" departSpeed="0.00" departDelay="0.00" arrival="135.00" arrivalLane="-14027562#4_0" arrivalPos="42.52" arrivalSpeed="14.27" duration="123.00" routeLength="1008.18" waitingTime="0.00" waitingCount="0" stopTime="0.00" timeLoss="14.63" rerouteNo="1" devices="tripinfo_12 routing_12" vType="DEFAULT_VEHTYPE" speedFactor="0.83" vaporized=""/>
    <tripinfo id="29" depart="29.00" departLane="-14025708#0_0" departPos="0.20" departSpeed="0.00" departDelay="0.00" arrival="137.00" arrivalLane="-682551445#2_0" arrivalPos="109.38" arrivalSpeed="13.75" duration="108.00" routeLength="1235.70" waitingTime="0.00" waitingCount="0" stopTime="0.00" timeLoss="14.64" rerouteNo="1" devices="tripinfo_29 routing_29" vType="DEFAULT_VEHTYPE" speedFactor="1.03" vaporized=""/>
    <tripinfo id="52" depart="52.00" departLane="-14026336#6_0" departPos="5.10" departSpeed="0.00" departDelay="0.00" arrival="143.00" arrivalLane="14025532_0" arrivalPos="87.58" arrivalSpeed="10.86" duration="91.00" routeLength="805.43" waitingTime="0.00" waitingCount="0" stopTime="0.00" timeLoss="11.82" rerouteNo="1" devices="tripinfo_52 routing_52" vType="DEFAULT_VEHTYPE" speedFactor="0.87" vaporized=""/>
    <tripinfo id="57" depart="57.00" departLane="682553785_0" departPos="1.62" departSpeed="0.00" departDelay="0.00" arrival="148.00" arrivalLane="682551442#6_0" arrivalPos="109.74" arrivalSpeed="11.60" duration="91.00" routeLength="1119.34" waitingTime="0.00" waitingCount="0" stopTime="0.00" timeLoss="14.36" rerouteNo="1" devices="tripinfo_57 routing_57" vType="DEFAULT_VEHTYPE" speedFactor="1.13" vaporized=""/>
    <tripinfo id="20" depart="20.00" departLane="14026100#0_0" departPos="5.10" departSpeed="0.00" departDelay="0.00" arrival="151.00" arrivalLane="-14024684#0_0" arrivalPos="43.31" arrivalSpeed="9.36" duration="131.00" routeLength="1171.15" waitingTime="8.00" waitingCount="1" stopTime="0.00" timeLoss="30.00" rerouteNo="1" devices="tripinfo_20 routing_20" vType="DEFAULT_VEHTYPE" speedFactor="0.89" vaporized=""/>
    <tripinfo id="74" depart="74.00" departLane="-14026096#0_0" departPos="5.10" departSpeed="0.00" departDelay="0.00" arrival="152.00" arrivalLane="-14026937#3_0" arrivalPos="124.04" arrivalSpeed="15.53" duration="78.00" routeLength="952.25" waitingTime="0.00" waitingCount="0" stopTime="0.00" timeLoss="17.26" rerouteNo="1" devices="tripinfo_74 routing_74" vType="DEFAULT_VEHTYPE" speedFactor="1.18" vaporized=""/>
    <tripinfo id="21" depart="21.00" departLane="-14026100#4_0" departPos="5.10" departSpeed="0.00" departDelay="0.00" arrival="154.00" arrivalLane="-14026504#9_0" arrivalPos="47.48" arrivalSpeed="11.95" duration="133.00" routeLength="1144.93" waitingTime="22.00" waitingCount="1" stopTime="0.00" timeLoss="42.84" rerouteNo="1" devices="tripinfo_21 routing_21" vType="DEFAULT_VEHTYPE" speedFactor="0.94" vaporized=""/>
    <tripinfo id="83" depart="83.00" departLane="-14026251#5_0" departPos="5.10" departSpeed="0.00" departDelay="0.00" arrival="157.00" arrivalLane="14026007#0_0" arrivalPos="41.76" arrivalSpeed="14.27" duration="74.00" routeLength="694.42" waitingTime="7.00" waitingCount="1" stopTime="0.00" timeLoss="26.90" rerouteNo="1" devices="tripinfo_83 routing_83" vType="DEFAULT_VEHTYPE" speedFactor="1.09" vaporized=""/>
    <tripinfo id="72" depart="72.00" departLane="-683043814#5_0" departPos="5.10" departSpeed="0.00" departDelay="0.00" arrival="158.00" arrivalLane="-14026100#0_0" arrivalPos="134.86" arrivalSpeed="12.33" duration="86.00" routeLength="834.96" waitingTime="2.00" waitingCount="1" stopTime="0.00" timeLoss="17.65" rerouteNo="1" devices="tripinfo_72 routing_72" vType="DEFAULT_VEHTYPE" speedFactor="0.97" vaporized=""/>
    <tripinfo id="49" depart="49.00" departLane="683047946#5_0" departPos="5.10" departSpeed="0.00" departDelay="0.00" arrival="159.00" arrivalLane="682551442#14_0" arrivalPos="31.75" arrivalSpeed="9.23" duration="110.00" routeLength="1024.51" waitingTime="0.00" waitingCount="0" stopTime="0.00" timeLoss="12.87" rerouteNo="1" devices="tripinfo_49 routing_49" vType="DEFAULT_VEHTYPE" speedFactor="0.89" vaporized=""/>
    <tripinfo id="100" depart="100.00" departLane="683047946#4_0" departPos="5.10" departSpeed="0.00" departDelay="0.00" arrival="161.00" arrivalLane="683043814#2_0" arrivalPos="117.41" arrivalSpeed="11.79" duration="61.00" routeLength="511.96" waitingTime="0.00" waitingCount="0" stopTime="0.00" timeLoss="12.64" rerouteNo="1" devices="tripinfo_100 routing_100" vType="DEFAULT_VEHTYPE" speedFactor="0.85" vaporized=""/>
    <tripinfo id="119" depart="119.00" departLane="14025159#6_0" departPos="5.10" departSpeed="0.00" departDelay="0.00" arrival="162.00" arrivalLane="14025222#7_0" arrivalPos="21.85" arrivalSpeed="10.90" duration="43.00" routeLength="388.59" waitingTime="0.00" waitingCount="0" stopTime="0.00" timeLoss="9.58" rerouteNo="1" devices="tripinfo_119 routing_119" vType="DEFAULT_VEHTYPE" speedFactor="1.08" vaporized=""/>
    <tripinfo id="60" depart="60.00" departLane="14026466_0" departPos="5.10" departSpeed="0.00" departDelay="0.00" arrival="164.00" arrivalLane="14024684#4_0" arrivalPos="41.72" arrivalSpeed="12.47" duration="104.00" routeLength="1272.82" waitingTime="0.00" waitingCount="0" stopTime="0.00" timeLoss="21.13" rerouteNo="1" devices="tripinfo_60 routing_60" vType="DEFAULT_VEHTYPE" speedFactor="1.18" vaporized=""/>
    <tripinfo id="110" depart="110.00" departLane="683047946#4_0" departPos="5.10" departSpeed="0.00" departDelay="0.00" arrival="164.00" arrivalLane="14025005_0" arrivalPos="30.76" arrivalSpeed="11.17" duration="54.00" routeLength="471.93" waitingTime="0.00" waitingCount="0" stopTime="0.00" timeLoss="13.74" rerouteNo="1" devices="tripinfo_110 routing_110" vType="DEFAULT_VEHTYPE" speedFactor="1.00" vaporized=""/>
    <tripinfo id="79" depart="79.00" departLane="-14026251#1_0" departPos="5.10" departSpeed="0.00" departDelay="0.00" arrival="166.00" arrivalLane="-14026100#4_0" arrivalPos="40.08" arrivalSpeed="13.32" duration="87.00" routeLength="1015.63" waitingTime="0.00" waitingCount="0" stopTime="0.00" timeLoss="15.00" rerouteNo="1" devices="tripinfo_79 routing_79" vType="DEFAULT_VEHTYPE" speedFactor="1.03" vaporized=""/>
    <tripinfo id="90" depart="90.00" departLane="14026251#9_0" departPos="5.10" departSpeed="0.00" departDelay="0.00" arrival="170.00" arrivalLane="14026017_0" arrivalPos="23.50" arrivalSpeed="11.72" duration="80.00" routeLength="868.97" waitingTime="0.00" waitingCount="0" stopTime="0.00" timeLoss="14.40" rerouteNo="1" devices="tripinfo_90 routing_90" vType="DEFAULT_VEHTYPE" speedFactor="1.09" vaporized=""/>
    <tripinfo id="91" depart="91.00" departLane="683050822#2_0" departPos="5.10" departSpeed="0.00" departDelay="0.00" arrival="170.00" arrivalLane="-14025159#3_0" arrivalPos="40.13" arrivalSpeed="10.16" duration="79.00" routeLength="775.59" waitingTime="0.00" waitingCount="0" stopTime="0.00" timeLoss="16.35" rerouteNo="1" devices="tripinfo_91 routing_91" vType="DEFAULT_VEHTYPE" speedFactor="1.00" vaporized=""/>
    <tripinfo id="39" depart="39.00" departLane="-14026336#5_0" departPos="5.10" departSpeed="0.00" departDelay="0.00" arrival="171.00" arrivalLane="-14026326#2_0" arrivalPos="79.47" arrivalSpeed="11.74" duration="132.00" routeLength="1421.04" waitingTime="0.00" waitingCount="0" stopTime="0.00" timeLoss="19.73" rerouteNo="1" devices="tripinfo_39 routing_39" vType="DEFAULT_VEHTYPE" speedFactor="0.94" vaporized=""/>
    <tripinfo id="56" depart="56.00" departLane="14019569#6_0" departPos="5.10" departSpeed="0.00" departDelay="0.00" arrival="173.00" arrivalLane="-14026007#1_0" arrivalPos="79.41" arrivalSpeed="12.43" duration="117.00" routeLength="1002.19" waitingTime="10.00" waitingCount="2" stopTime="0.00" timeLoss="32.39" rerouteNo="1" devices="tripinfo_56 routing_56" vType="DEFAULT_VEHTYPE" speedFactor="0.95" vaporized=""/>
    <tripinfo id="106" depart="106.00" departLane="-683047946#1_0" departPos="5.10" departSpeed="0.00" departDelay="0.00" arrival="173.00" arrivalLane="-683044783#2_0" arrivalPos="117.27" arrivalSpeed="9.30" duration="67.00" routeLength="646.65" waitingTime="0.00" waitingCount="0" stopTime="0.00" timeLoss="17.98" rerouteNo="1" devices="tripinfo_106 routing_106" vType="DEFAULT_VEHTYPE" speedFactor="1.10" vaporized=""/>
    <tripinfo id="65" depart="65.00" departLane="-14026768#1_0" departPos="5.10" departSpeed="0.00" departDelay="0.00" arrival="174.00" arrivalLane="-14024684#5_0" arrivalPos="40.28" arrivalSpeed="11.83" duration="109.00" routeLength="1119.54" waitingTime="2.00" waitingCount="1" stopTime="0.00" timeLoss="28.52" rerouteNo="1" devices="tripinfo_65 routing_65" vType="DEFAULT_VEHTYPE" speedFactor="1.15" vaporized=""/>
    <tripinfo id="109" depart="109.00" departLane="-14025399_0" departPos="5.10" departSpeed="0.00" departDelay="0.00" arrival="177.00" arrivalLane="-14026676#2_0" arrivalPos="77.60" arrivalSpeed="13.36" duration="68.00" routeLength="591.05" waitingTime="0.00" waitingCount="0" stopTime="0.00" timeLoss="9.92" rerouteNo="1" devices="tripinfo_109 routing_109" vType="DEFAULT_VEHTYPE" speedFactor="1.00" vaporized=""/>
    <tripinfo id="132" depart="132.00" departLane="625743585#1_0" departPos="5.10" departSpeed="0.00" departDelay="0.00" arrival="177.00" arrivalLane="14026100#0_0" arrivalPos="136.53" arrivalSpeed="12.18" duration="45.00" routeLength="203.85" waitingTime="17.00" waitingCount="1" stopTime="0.00" timeLoss="25.53" rerouteNo="1" devices="tripinfo_132 routing_132" vType="DEFAULT_VEHTYPE" speedFactor="0.88" vaporized=""/>
    <tripinfo id="66" depart="66.00" departLane="682551445#0_0" departPos="5.10" departSpeed="0.00" departDelay="0.00" arrival="180.00" arrivalLane="683044783#6_0" arrivalPos="110.32" arrivalSpeed="8.17" duration="114.00" routeLength="1118.76" waitingTime="6.00" waitingCount="1" stopTime="0.00" timeLoss="24.56" rerouteNo="1" devices="tripinfo_66 routing_66" vType="DEFAULT_VEHTYPE" speedFactor="1.01" vaporized=""/>
    <tripinfo id="31" depart="31.00" departLane="14024694#0_0" departPos="5.10" departSpeed="0.00" departDelay="0.00" arrival="182.00" arrivalLane="14026096#0_0" arrivalPos="43.13" arrivalSpeed="12.49" duration="151.00" routeLength="2420.96" waitingTime="0.00" waitingCount="0" stopTime="0.00" timeLoss="24.07" rerouteNo="1" devices="tripinfo_31 routing_31" vType="DEFAULT_VEHTYPE" speedFactor="1.05" vaporized=""/>
    <tripinfo id="95" depart="95.00" departLane="-683043814#4_0" departPos="5.10" departSpeed="0.00" departDelay="0.00" arrival="182.00" arrivalLane="-14026504#4_0" arrivalPos="40.61" arrivalSpeed="11.62" duration="87.00" routeLength="647.20" waitingTime="8.00" waitingCount="1" stopTime="0.00" timeLoss="30.78" rerouteNo="1" devices="tripinfo_95 routing_95" vType="DEFAULT_VEHTYPE" speedFactor="0.88" vaporized=""/>
    <tripinfo id="104" depart="104.00" departLane="-682551442#7_0" departPos="5.10" departSpeed="0.00" departDelay="0.00" arrival="185.00" arrivalLane="683050822#3_0" arrivalPos="0.20" arrivalSpeed="15.02" duration="81.00" routeLength="842.38" waitingTime="0.00" waitingCount="0" stopTime="0.00" timeLoss="11.69" rerouteNo="1" devices="tripinfo_104 routing_104" vType="DEFAULT_VEHTYPE" speedFactor="1.02" vaporized=""/>
    <tripinfo id="46" depart="46.00" departLane="14026768#1_0" departPos="5.10" departSpeed="0.00" departDelay="0.00" arrival="186.00" arrivalLane="-683044783#1_0" arrivalPos="33.53" arrivalSpeed="7.44" duration="140.00" routeLength="1360.32" waitingTime="5.00" waitingCount="1" stopTime="0.00" timeLoss="28.99" rerouteNo="1" devices="tripinfo_46 routing_46" vType="DEFAULT_VEHTYPE" speedFactor="0.97" vaporized=""/>
    <tripinfo id="69" depart="69.00" departLane="14026504#1_0" departPos="5.10" departSpeed="0.00" departDelay="0.00" arrival="192.00" arrivalLane="-14025222#5_0" arrivalPos="123.67" arrivalSpeed="10.45" duration="123.00" routeLength="1213.43" waitingTime="2.00" waitingCount="1" stopTime="0.00" timeLoss="20.83" rerouteNo="1" devices="tripinfo_69 routing_69" vType="DEFAULT_VEHTYPE" speedFactor="0.99" vaporized=""/>
    <tripinfo id="133" depart="133.00" departLane="14025222#13_0" departPos="5.10" departSpeed="0.00" departDelay="0.00" arrival="192.00" arrivalLane="683050822#4_0" arrivalPos="35.12" arrivalSpeed="10.78" duration="59.00" routeLength="785.07" waitingTime="0.00" waitingCount="0" stopTime="0.00" timeLoss="14.30" rerouteNo="1" devices="tripinfo_133 routing_133" vType="DEFAULT_VEHTYPE" speedFactor="0.91" vaporized=""/>
    <tripinfo id="42" depart="42.00" departLane="-682553774#2_0" departPos="5.10" departSpeed="0.00" departDelay="0.00" arrival="200.00" arrivalLane="-14026100#4_0" arrivalPos="40.08" arrivalSpeed="11.98" duration="158.00" routeLength="2593.32" waitingTime="0.00" waitingCount="0" stopTime="0.00" timeLoss="29.14" rerouteNo="1" devices="tripinfo_42 routing_42" vType="DEFAULT_VEHTYPE" speedFactor="1.02" vaporized=""/>
    <tripinfo id="153" depart="153.00" departLane="-14026768#1_0" departPos="5.10" departSpeed="0.00" departDelay="0.00" arrival="214.00" arrivalLane="682553777#1_0" arrivalPos="111.94" arrivalSpeed="24.04" duration="61.00" routeLength="684.00" waitingTime="1.00" waitingCount="1" stopTime="0.00" timeLoss="16.67" rerouteNo="1" devices="tripinfo_153 routing_153" vType="DEFAULT_VEHTYPE" speedFactor="0.98" vaporized=""/>
    <tripinfo id="113" depart="113.00" departLane="14019569#8_0" departPos="5.10" departSpeed="0.00" departDelay="0.00" arrival="216.00" arrivalLane="682551442#10_0" arrivalPos="48.47" arrivalSpeed="10.04" duration="103.00" routeLength="899.69" waitingTime="0.00" waitingCount="0" stopTime="0.00" timeLoss="13.37" rerouteNo="1" devices="tripinfo_113 routing_113" vType="DEFAULT_VEHTYPE" speedFactor="0.90" vaporized=""/>
    <tripinfo id="141" depart="141.00" departLane="14025398#1_0" departPos="5.10" departSpeed="0.00" departDelay="0.00" arrival="218.00" arrivalLane="-14026336#9_0" arrivalPos="47.34" arrivalSpeed="11.24" duration="77.00" routeLength="695.89" waitingTime="0.00" waitingCount="0" stopTime="0.00" timeLoss="20.81" rerouteNo="1" devices="tripinfo_141 routing_141" vType="DEFAULT_VEHTYPE" speedFactor="1.02" vaporized=""/>
    <tripinfo id="55" depart="55.00" departLane="682551442#9_0" departPos="0.20" departSpeed="0.00" departDelay="0.00" arrival="219.00" arrivalLane="-14026336#8_0" arrivalPos="47.75" arrivalSpeed="9.59" duration="164.00" routeLength="1584.88" waitingTime="0.00" waitingCount="0" stopTime="0.00" timeLoss="18.62" rerouteNo="1" devices="tripinfo_55 routing_55" vType="DEFAULT_VEHTYPE" speedFactor="0.92" vaporized=""/>
    <tripinfo id="70" depart="70.00" departLane="-683050822#3_0" departPos="0.20" departSpeed="0.00" departDelay="0.00" arrival="219.00" arrivalLane="14024694#0_0" arrivalPos="568.81" arrivalSpeed="22.28" duration="149.00" routeLength="2262.73" waitingTime="0.00" waitingCount="0" stopTime="0.00" timeLoss="16.85" rerouteNo="1" devices="tripinfo_70 routing_70" vType="DEFAULT_VEHTYPE" speedFactor="1.02" vaporized=""/>
    <tripinfo id="77" depart="77.00" departLane="-14025222#11_0" departPos="0.20" departSpeed="0.00" departDelay="0.00" arrival="220.00" arrivalLane="-14026251#2_0" arrivalPos="41.28" arrivalSpeed="12.29" duration="143.00" routeLength="1380.84" waitingTime="0.00" waitingCount="0" stopTime="0.00" timeLoss="17.96" rerouteNo="1" devices="tripinfo_77 routing_77" vType="DEFAULT_VEHTYPE" speedFactor="0.90" vaporized=""/>
    <tripinfo id="36" depart="36.00" departLane="682551442#9_0" departPos="0.20" departSpeed="0.00" departDelay="0.00" arrival="221.00" arrivalLane="-14027172#0_0" arrivalPos="41.33" arrivalSpeed="6.04" duration="185.00" routeLength="1872.47" waitingTime="3.00" waitingCount="2" stopTime="0.00" timeLoss="40.59" rerouteNo="1" devices="tripinfo_36 routing_36" vType="DEFAULT_VEHTYPE" speedFactor="0.94" vaporized=""/>
    <tripinfo id="168" depart="168.00" departLane="-14026100#2_0" departPos="5.10" departSpeed="0.00" departDelay="0.00" arrival="223.00" arrivalLane="14027172#5_0" arrivalPos="31.21" arrivalSpeed="10.67" duration="55.00" routeLength="553.27" waitingTime="0.00" waitingCount="0" stopTime="0.00" timeLoss="8.91" rerouteNo="1" devices="tripinfo_168 routing_168" vType="DEFAULT_VEHTYPE" speedFactor="0.97" vaporized=""/>
    <tripinfo id="68" depart="68.00" departLane="-14024694#1_0" departPos="5.10" departSpeed="0.00" departDelay="0.00" arrival="225.00" arrivalLane="14026436_0" arrivalPos="268.18" arrivalSpeed="15.39" duration="157.00" routeLength="2582.55" waitingTime="0.00" waitingCount="0" stopTime="0.00" timeLoss="27.57" rerouteNo="1" devices="tripinfo_68 routing_68" vType="DEFAULT_VEHTYPE" speedFactor="1.17" vaporized=""/>
    <tripinfo id="146" depart="149.00" departLane="14025398#2_0" departPos="5.10" departSpeed="0.00" departDelay="3.00" arrival="226.00" arrivalLane="-14026336#8_0" arrivalPos="47.75" arrivalSpeed="6.31" duration="77.00" routeLength="714.84" waitingTime="0.00" waitingCount="0" stopTime="0.00" timeLoss="19.23" rerouteNo="1" devices="tripinfo_146 routing_146" vType="DEFAULT_VEHTYPE" speedFactor="1.02" vaporized=""/>
    <tripinfo id="34" depart="34.00" departLane="-14026937#1_0" departPos="5.10" departSpeed="0.00" departDelay="0.00" arrival="227.00" arrivalLane="-14026436_0" arrivalPos="268.27" arrivalSpeed="11.95" duration="193.00" routeLength="1927.14" waitingTime="13.00" waitingCount="1" stopTime="0.00" timeLoss="43.11" rerouteNo="1" devices="tripinfo_34 routing_34" vType="DEFAULT_VEHTYPE" speedFactor="0.93" vaporized=""/>
    <tripinfo id="148" depart="148.00" departLane="-683044783#0_0" departPos="5.10" departSpeed="0.00" departDelay="0.00" arrival="227.00" arrivalLane="-14019569#5_0" arrivalPos="41.67" arrivalSpeed="12.53" duration="79.00" routeLength="763.75" waitingTime="0.00" waitingCount="0" stopTime="0.00" timeLoss="14.52" rerouteNo="1" devices="tripinfo_148 routing_148" vType="DEFAULT_VEHTYPE" speedFactor="0.94" vaporized=""/>
    <tripinfo id="157" depart="157.00" departLane="14026504#9_0" departPos="5.10" departSpeed="0.00" departDelay="0.00" arrival="227.00" arrivalLane="682551446#1_0" arrivalPos="50.31" arrivalSpeed="10.74" duration="70.00" routeLength="626.28" waitingTime="1.00" waitingCount="1" stopTime="0.00" timeLoss="12.64" rerouteNo="1" devices="tripinfo_157 routing_157" vType="DEFAULT_VEHTYPE" speedFactor="0.98" vaporized=""/>
    <tripinfo id="87" depart="87.00" departLane="14027172#1_0" departPos="5.10" departSpeed="0.00" departDelay="0.00" arrival="228.00" arrivalLane="-14026024#1_0" arrivalPos="80.23" arrivalSpeed="10.50" duration="141.00" routeLength="1475.29" waitingTime="0.00" waitingCount="0" stopTime="0.00" timeLoss="27.69" rerouteNo="1" devices="tripinfo_87 routing_87" vType="DEFAULT_VEHTYPE" speedFactor="1.04" vaporized=""/>
    <tripinfo id="163" depart="163.00" departLane="-14027172#5_0" departPos="5.10" departSpeed="0.00" departDelay="0.00" arrival="228.00" arrivalLane="683043814#4_0" arrivalPos="109.40" arrivalSpeed="13.46" duration="65.00" routeLength="611.32" waitingTime="0.00" waitingCount="0" stopTime="0.00" timeLoss="14.22" rerouteNo="1" devices="tripinfo_163 routing_163" vType="DEFAULT_VEHTYPE" speedFactor="1.03" vaporized=""/>
    <tripinfo id="186" depart="186.00" departLane="14026336#1_0" departPos="5.10" departSpeed="0.00" departDelay="0.00" arrival="232.00" arrivalLane="14026007#1_0" arrivalPos="79.41" arrivalSpeed="14.56" duration="46.00" routeLength="413.86" waitingTime="2.00" waitingCount="1" stopTime="0.00" timeLoss="15.62" rerouteNo="1" devices="tripinfo_186 routing_186" vType="DEFAULT_VEHTYPE" speedFactor="1.06" vaporized=""/>
    <tripinfo id="51" depart="51.00" departLane="14026024#1_0" departPos="5.10" departSpeed="0.00" departDelay="0.00" arrival="233.00" arrivalLane="14024684#3_0" arrivalPos="40.04" arrivalSpeed="8.67" duration="182.00" routeLength="1591.47" waitingTime="0.00" waitingCount="0" stopTime="0.00" timeLoss="28.97" rerouteNo="1" devices="tripinfo_51 routing_51" vType="DEFAULT_VEHTYPE" speedFactor="0.83" vaporized=""/>
    <tripinfo id="139" depart="139.00" departLane="-14026336#9_0" departPos="5.10" departSpeed="0.00" departDelay="0.00" arrival="233.00" arrivalLane="14025222#11_0" arrivalPos="0.20" arrivalSpeed="11.51" duration="94.00" routeLength="949.45" waitingTime="0.00" waitingCount="0" stopTime="0.00" timeLoss="10.98" rerouteNo="1" devices="tripinfo_139 routing_139" vType="DEFAULT_VEHTYPE" speedFactor="1.04" vaporized=""/>
    <tripinfo id="173" depart="173.00" departLane="683047946#3_0" departPos="5.10" departSpeed="0.00" departDelay="0.00" arrival="236.00" arrivalLane="-14026504#4_0" arrivalPos="40.61" arrivalSpeed="13.74" duration="63.00" routeLength="648.66" waitingTime="0.00" waitingCount="0" stopTime="0.00" timeLoss="13.97" rerouteNo="1" devices="tripinfo_173 routing_173" vType="DEFAULT_VEHTYPE" speedFactor="1.00" vaporized=""/>
    <tripinfo id="218" depart="218.00" departLane="-14026326#0_0" departPos="5.10" departSpeed="0.00" departDelay="0.00" arrival="242.00" arrivalLane="625743596_0" arrivalPos="76.65" arrivalSpeed="14.49" duration="24.00" routeLength="258.38" waitingTime="0.00" waitingCount="0" stopTime="0.00" timeLoss="5.69" rerouteNo="1" devices="tripinfo_218 routing_218" vType="DEFAULT_VEHTYPE" speedFactor="1.01" vaporized=""/>
    <tripinfo id="114" depart="114.00" departLane="-14025635_0" departPos="5.10" departSpeed="0.00" departDelay="0.00" arrival="244.00" arrivalLane="683047946#0_0" arrivalPos="14.49" arrivalSpeed="13.30" duration="130.00" routeLength="1530.55" waitingTime="0.00" waitingCount="0" stopTime="0.00" timeLoss="19.21" rerouteNo="1" devices="tripinfo_114 routing_114" vType="DEFAULT_VEHTYPE" speedFactor="1.14" vaporized=""/>
    <tripinfo id="121" depart="121.00" departLane="14019624_0" departPos="5.10" departSpeed="0.00" departDelay="0.00" arrival="252.00" arrivalLane="683044783#0_0" arrivalPos="67.02" arrivalSpeed="8.84" duration="131.00" routeLength="1321.13" waitingTime="0.00" waitingCount="0" stopTime="0.00" timeLoss="36.75" rerouteNo="1" devices="tripinfo_121 routing_121" vType="DEFAULT_VEHTYPE" speedFactor="1.12" vaporized=""/>
    <tripinfo id="162" depart="162.00" departLane="-14019571#3_0" departPos="5.10" departSpeed="0.00" departDelay="0.00" arrival="252.00" arrivalLane="14026326#2_0" arrivalPos="80.00" arrivalSpeed="13.95" duration="90.00" routeLength="1076.92" waitingTime="0.00" waitingCount="0" stopTime="0.00" timeLoss="19.58" rerouteNo="1" devices="tripinfo_162 routing_162" vType="DEFAULT_VEHTYPE" speedFactor="1.09" vaporized=""/>
    <tripinfo id="59" depart="59.00" departLane="14025222#11_0" departPos="0.20" departSpeed="0.00" departDelay="0.00" arrival="253.00" arrivalLane="-14025701#0_0" arrivalPos="43.62" arrivalSpeed="11.90" duration="194.00" routeLength="1983.59" waitingTime="6.00" waitingCount="2" stopTime="0.00" timeLoss="37.01" rerouteNo="1" devices="tripinfo_59 routing_59" vType="DEFAULT_VEHTYPE" speedFactor="0.93" vaporized=""/>
    <tripinfo id="165" depart="165.00" departLane="14027172#2_0" departPos="5.10" departSpeed="0.00" departDelay="0.00" arrival="253.00" arrivalLane="-14026351_0" arrivalPos="13.35" arrivalSpeed="13.39" duration="88.00" routeLength="826.59" waitingTime="1.00" waitingCount="1" stopTime="0.00" timeLoss="19.79" rerouteNo="1" devices="tripinfo_165 routing_165" vType="DEFAULT_VEHTYPE" speedFactor="1.02" vaporized=""/>
    <tripinfo id="43" depart="43.00" departLane="683270320_0" departPos="5.10" departSpeed="0.00" departDelay="0.00" arrival="255.00" arrivalLane="14019622#1_0" arrivalPos="77.07" arrivalSpeed="13.48" duration="212.00" routeLength="3117.45" waitingTime="3.00" waitingCount="1" stopTime="0.00" timeLoss="36.91" rerouteNo="1" devices="tripinfo_43 routing_43" vType="DEFAULT_VEHTYPE" speedFactor="1.01" vaporized=""/>