<?xml version="1.0" encoding="UTF-8"?>

<!-- generated on 2025-02-13 22:26:34 by Eclipse SUMO GUI Version 1.22.0
<sumoConfiguration xmlns:xsi="http://www.w3.org/2001/XMLSchema-instance" xsi:noNamespaceSchemaLocation="http://sumo.dlr.de/xsd/sumoConfiguration.xsd">

    <input>
        <net-file value="C:\Users\Panda\OneDrive\Desktop\Sumo\CS690-MiniProj1\lyons\AM\lyons.net.xml"/>
        <route-files value="C:\Users\Panda\OneDrive\Desktop\Sumo\CS690-MiniProj1\lyons\AM\routes.rou.xml"/>
        <additional-files value="C:\Users\Panda\OneDrive\Desktop\Sumo\CS690-MiniProj1\lyons\AM\detectors.add.xml"/>
    </input>

    <output>
        <tripinfo-output value="C:\Users\Panda\OneDrive\Desktop\Sumo\CS690-MiniProj1\lyons\AM\tripinfo.xml"/>
    </output>

</sumoConfiguration>
-->

<tripinfos xmlns:xsi="http://www.w3.org/2001/XMLSchema-instance" xsi:noNamespaceSchemaLocation="http://sumo.dlr.de/xsd/tripinfo_file.xsd">
    <tripinfo id="3" depart="2.00" departLane="682553774#2_0" departPos="5.10" departSpeed="0.00" departDelay="0.50" arrival="27.00" arrivalLane="-14024835#2_0" arrivalPos="97.10" arrivalSpeed="24.12" duration="25.00" routeLength="329.62" waitingTime="0.00" waitingCount="0" stopTime="0.00" timeLoss="11.44" rerouteNo="0" devices="tripinfo_3" vType="DEFAULT_VEHTYPE" speedFactor="1.08" vaporized=""/>
    <tripinfo id="4" depart="2.00" departLane="-683043814#4_0" departPos="5.10" departSpeed="0.00" departDelay="0.00" arrival="53.00" arrivalLane="-14019622#1_0" arrivalPos="77.07" arrivalSpeed="14.02" duration="51.00" routeLength="523.26" waitingTime="0.00" waitingCount="0" stopTime="0.00" timeLoss="12.84" rerouteNo="0" devices="tripinfo_4" vType="DEFAULT_VEHTYPE" speedFactor="1.03" vaporized=""/>
    <tripinfo id="23" depart="12.00" departLane="-14025159#3_0" departPos="5.10" departSpeed="0.00" departDelay="0.50" arrival="57.00" arrivalLane="-14026504#3_0" arrivalPos="40.92" arrivalSpeed="11.90" duration="45.00" routeLength="354.51" waitingTime="0.00" waitingCount="0" stopTime="0.00" timeLoss="9.24" rerouteNo="0" devices="tripinfo_23" vType="DEFAULT_VEHTYPE" speedFactor="0.89" vaporized=""/>
    <tripinfo id="10" depart="5.00" departLane="14027172#0_0" departPos="5.10" departSpeed="0.00" departDelay="0.00" arrival="61.00" arrivalLane="14026096#7_0" arrivalPos="27.27" arrivalSpeed="14.17" duration="56.00" routeLength="631.39" waitingTime="0.00" waitingCount="0" stopTime="0.00" timeLoss="9.41" rerouteNo="0" devices="tripinfo_10" vType="DEFAULT_VEHTYPE" speedFactor="1.09" vaporized=""/>
    <tripinfo id="8" depart="4.00" departLane="-14026100#0_0" departPos="5.10" departSpeed="0.00" departDelay="0.00" arrival="65.00" arrivalLane="14025159#5_0" arrivalPos="40.55" arrivalSpeed="10.16" duration="61.00" routeLength="539.20" waitingTime="0.00" waitingCount="0" stopTime="0.00" timeLoss="10.24" rerouteNo="0" devices="tripinfo_8" vType="DEFAULT_VEHTYPE" speedFactor="0.94" vaporized=""/>
    <tripinfo id="50" depart="25.00" departLane="-14019569#6_0" departPos="5.10" departSpeed="0.00" departDelay="0.00" arrival="66.00" arrivalLane="14026251#4_0" arrivalPos="41.83" arrivalSpeed="11.41" duration="41.00" routeLength="281.15" waitingTime="0.00" waitingCount="0" stopTime="0.00" timeLoss="13.48" rerouteNo="0" devices="tripinfo_50" vType="DEFAULT_VEHTYPE" speedFactor="0.85" vaporized=""/>
    <tripinfo id="35" depart="18.00" departLane="-14026096#5_0" departPos="0.20" departSpeed="0.00" departDelay="0.50" arrival="71.00" arrivalLane="683044783#4_0" arrivalPos="35.02" arrivalSpeed="8.71" duration="53.00" routeLength="467.00" waitingTime="3.00" waitingCount="1" stopTime="0.00" timeLoss="13.76" rerouteNo="0" devices="tripinfo_35" vType="DEFAULT_VEHTYPE" speedFactor="1.02" vaporized=""/>
    <tripinfo id="16" depart="8.00" departLane="14024684#0_0" departPos="5.10" departSpeed="0.00" departDelay="0.00" arrival="77.00" arrivalLane="683047946#6_0" arrivalPos="109.77" arrivalSpeed="11.12" duration="69.00" routeLength="666.32" waitingTime="0.00" waitingCount="0" stopTime="0.00" timeLoss="9.03" rerouteNo="0" devices="tripinfo_16" vType="DEFAULT_VEHTYPE" speedFactor="0.88" vaporized=""/>
    <tripinfo id="88" depart="44.00" departLane="-14025159#0_0" departPos="5.10" departSpeed="0.00" departDelay="0.00" arrival="78.00" arrivalLane="-683044783#6_0" arrivalPos="110.32" arrivalSpeed="8.87" duration="34.00" routeLength="287.17" waitingTime="0.00" waitingCount="0" stopTime="0.00" timeLoss="4.46" rerouteNo="0" devices="tripinfo_88" vType="DEFAULT_VEHTYPE" speedFactor="1.01" vaporized=""/>
    <tripinfo id="73" depart="37.00" departLane="14024684#10_0" departPos="5.10" departSpeed="0.00" departDelay="0.50" arrival="80.00" arrivalLane="14026251#9_0" arrivalPos="47.79" arrivalSpeed="13.97" duration="43.00" routeLength="392.31" waitingTime="0.00" waitingCount="0" stopTime="0.00" timeLoss="10.39" rerouteNo="0" devices="tripinfo_73" vType="DEFAULT_VEHTYPE" speedFactor="1.06" vaporized=""/>
    <tripinfo id="33" depart="17.00" departLane="-14026251#0_0" departPos="5.10" departSpeed="0.00" departDelay="0.50" arrival="82.00" arrivalLane="-14019623_0" arrivalPos="99.25" arrivalSpeed="15.99" duration="65.00" routeLength="685.26" waitingTime="0.00" waitingCount="0" stopTime="0.00" timeLoss="16.59" rerouteNo="0" devices="tripinfo_33" vType="DEFAULT_VEHTYPE" speedFactor="1.17" vaporized=""/>
    <tripinfo id="98" depart="49.00" departLane="14024684#7_0" departPos="5.10" departSpeed="0.00" departDelay="0.00" arrival="82.00" arrivalLane="-14024684#2_0" arrivalPos="41.98" arrivalSpeed="12.03" duration="33.00" routeLength="325.40" waitingTime="0.00" waitingCount="0" stopTime="0.00" timeLoss="6.30" rerouteNo="0" devices="tripinfo_98" vType="DEFAULT_VEHTYPE" speedFactor="1.12" vaporized=""/>
    <tripinfo id="94" depart="47.00" departLane="-14026017_0" departPos="5.10" departSpeed="0.00" departDelay="0.00" arrival="86.00" arrivalLane="-683047946#2_0" arrivalPos="38.72" arrivalSpeed="11.79" duration="39.00" routeLength="408.45" waitingTime="0.00" waitingCount="0" stopTime="0.00" timeLoss="9.73" rerouteNo="0" devices="tripinfo_94" vType="DEFAULT_VEHTYPE" speedFactor="1.09" vaporized=""/>
    <tripinfo id="5" depart="3.00" departLane="-14026096#9_0" departPos="5.10" departSpeed="0.00" departDelay="0.50" arrival="90.00" arrivalLane="14019571#3_0" arrivalPos="34.24" arrivalSpeed="10.60" duration="87.00" routeLength="823.36" waitingTime="0.00" waitingCount="0" stopTime="0.00" timeLoss="12.39" rerouteNo="0" devices="tripinfo_5" vType="DEFAULT_VEHTYPE" speedFactor="0.83" vaporized=""/>
    <tripinfo id="132" depart="66.00" departLane="625743585#1_0" departPos="5.10" departSpeed="0.00" departDelay="0.00" arrival="90.00" arrivalLane="14026100#0_0" arrivalPos="136.53" arrivalSpeed="12.97" duration="24.00" routeLength="203.85" waitingTime="0.00" waitingCount="0" stopTime="0.00" timeLoss="6.29" rerouteNo="0" devices="tripinfo_132" vType="DEFAULT_VEHTYPE" speedFactor="0.96" vaporized=""/>
    <tripinfo id="18" depart="9.00" departLane="14027562#4_0" departPos="5.10" departSpeed="0.00" departDelay="0.00" arrival="91.00" arrivalLane="14025222#6_0" arrivalPos="0.20" arrivalSpeed="9.92" duration="82.00" routeLength="736.19" waitingTime="0.00" waitingCount="0" stopTime="0.00" timeLoss="11.87" rerouteNo="0" devices="tripinfo_18" vType="DEFAULT_VEHTYPE" speedFactor="0.94" vaporized=""/>
    <tripinfo id="14" depart="7.00" departLane="625743596_0" departPos="5.10" departSpeed="0.00" departDelay="0.00" arrival="96.00" arrivalLane="14025222#10_0" arrivalPos="54.87" arrivalSpeed="10.14" duration="89.00" routeLength="1050.34" waitingTime="2.00" waitingCount="1" stopTime="0.00" timeLoss="20.10" rerouteNo="0" devices="tripinfo_14" vType="DEFAULT_VEHTYPE" speedFactor="0.99" vaporized=""/>
    <tripinfo id="122" depart="61.00" departLane="-14026096#2_0" departPos="5.10" departSpeed="0.00" departDelay="0.00" arrival="97.00" arrivalLane="14026251#2_0" arrivalPos="41.28" arrivalSpeed="13.23" duration="36.00" routeLength="379.25" waitingTime="0.00" waitingCount="0" stopTime="0.00" timeLoss="9.03" rerouteNo="0" devices="tripinfo_122" vType="DEFAULT_VEHTYPE" speedFactor="1.03" vaporized=""/>
    <tripinfo id="62" depart="31.00" departLane="-14019569#0_0" departPos="5.10" departSpeed="0.00" departDelay="0.00" arrival="98.00" arrivalLane="-14027172#5_0" arrivalPos="31.21" arrivalSpeed="11.27" duration="67.00" routeLength="579.72" waitingTime="0.00" waitingCount="0" stopTime="0.00" timeLoss="12.05" rerouteNo="0" devices="tripinfo_62" vType="DEFAULT_VEHTYPE" speedFactor="1.02" vaporized=""/>
    <tripinfo id="100" depart="50.00" departLane="683047946#4_0" departPos="5.10" departSpeed="0.00" departDelay="0.00" arrival="101.00" arrivalLane="683043814#2_0" arrivalPos="117.41" arrivalSpeed="13.72" duration="51.00" routeLength="511.96" waitingTime="0.00" waitingCount="0" stopTime="0.00" timeLoss="12.71" rerouteNo="0" devices="tripinfo_100" vType="DEFAULT_VEHTYPE" speedFactor="1.06" vaporized=""/>
    <tripinfo id="53" depart="27.00" departLane="-14025159#8_0" departPos="5.10" departSpeed="0.00" departDelay="0.50" arrival="102.00" arrivalLane="-683047939#1_0" arrivalPos="44.36" arrivalSpeed="14.69" duration="75.00" routeLength="781.76" waitingTime="0.00" waitingCount="0" stopTime="0.00" timeLoss="15.49" rerouteNo="0" devices="tripinfo_53" vType="DEFAULT_VEHTYPE" speedFactor="1.10" vaporized=""/>
    <tripinfo id="6" depart="3.00" departLane="-14019622#0_0" departPos="5.10" departSpeed="0.00" departDelay="0.00" arrival="105.00" arrivalLane="-14026096#3_0" arrivalPos="41.07" arrivalSpeed="14.31" duration="102.00" routeLength="1112.64" waitingTime="0.00" waitingCount="0" stopTime="0.00" timeLoss="23.38" rerouteNo="0" devices="tripinfo_6" vType="DEFAULT_VEHTYPE" speedFactor="1.05" vaporized=""/>
    <tripinfo id="12" depart="6.00" departLane="683047943#1_0" departPos="5.10" departSpeed="0.00" departDelay="0.00" arrival="106.00" arrivalLane="-14027562#4_0" arrivalPos="42.52" arrivalSpeed="15.33" duration="100.00" routeLength="1008.18" waitingTime="0.00" waitingCount="0" stopTime="0.00" timeLoss="13.87" rerouteNo="0" devices="tripinfo_12" vType="DEFAULT_VEHTYPE" speedFactor="1.05" vaporized=""/>
    <tripinfo id="52" depart="26.00" departLane="-14026336#6_0" departPos="5.10" departSpeed="0.00" departDelay="0.00" arrival="106.00" arrivalLane="14025532_0" arrivalPos="87.58" arrivalSpeed="12.96" duration="80.00" routeLength="805.43" waitingTime="0.00" waitingCount="0" stopTime="0.00" timeLoss="12.13" rerouteNo="0" devices="tripinfo_52" vType="DEFAULT_VEHTYPE" speedFactor="1.02" vaporized=""/>
    <tripinfo id="76" depart="38.00" departLane="-683044783#6_0" departPos="5.10" departSpeed="0.00" departDelay="0.00" arrival="107.00" arrivalLane="14020103_0" arrivalPos="26.10" arrivalSpeed="10.75" duration="69.00" routeLength="664.09" waitingTime="0.00" waitingCount="0" stopTime="0.00" timeLoss="13.75" rerouteNo="0" devices="tripinfo_76" vType="DEFAULT_VEHTYPE" speedFactor="1.03" vaporized=""/>
    <tripinfo id="41" depart="21.00" departLane="14025159#0_0" departPos="5.10" departSpeed="0.00" departDelay="0.50" arrival="108.00" arrivalLane="682553777#1_0" arrivalPos="104.31" arrivalSpeed="23.43" duration="87.00" routeLength="929.12" waitingTime="0.00" waitingCount="0" stopTime="0.00" timeLoss="16.13" rerouteNo="0" devices="tripinfo_41" vType="DEFAULT_VEHTYPE" speedFactor="0.96" vaporized=""/>
    <tripinfo id="47" depart="24.00" departLane="-14024684#7_0" departPos="5.10" departSpeed="0.00" departDelay="0.50" arrival="108.00" arrivalLane="-682551446#0_0" arrivalPos="42.40" arrivalSpeed="9.99" duration="84.00" routeLength="780.64" waitingTime="0.00" waitingCount="0" stopTime="0.00" timeLoss="12.27" rerouteNo="0" devices="tripinfo_47" vType="DEFAULT_VEHTYPE" speedFactor="0.90" vaporized=""/>
    <tripinfo id="54" depart="27.00" departLane="-683047946#0_0" departPos="5.10" departSpeed="0.00" departDelay="0.00" arrival="108.00" arrivalLane="683047942#1_0" arrivalPos="44.41" arrivalSpeed="13.38" duration="81.00" routeLength="806.35" waitingTime="0.00" waitingCount="0" stopTime="0.00" timeLoss="20.06" rerouteNo="0" devices="tripinfo_54" vType="DEFAULT_VEHTYPE" speedFactor="1.00" vaporized=""/>
    <tripinfo id="9" depart="5.00" departLane="14027172#2_0" departPos="5.10" departSpeed="0.00" departDelay="0.50" arrival="111.00" arrivalLane="-14019569#3_0" arrivalPos="40.14" arrivalSpeed="11.51" duration="106.00" routeLength="537.22" waitingTime="36.00" waitingCount="1" stopTime="0.00" timeLoss="49.72" rerouteNo="0" devices="tripinfo_9" vType="DEFAULT_VEHTYPE" speedFactor="0.86" vaporized=""/>
    <tripinfo id="19" depart="10.00" departLane="682551442#2_0" departPos="5.10" departSpeed="0.00" departDelay="0.50" arrival="111.00" arrivalLane="14024875_0" arrivalPos="0.20" arrivalSpeed="6.57" duration="101.00" routeLength="1263.55" waitingTime="0.00" waitingCount="0" stopTime="0.00" timeLoss="16.28" rerouteNo="0" devices="tripinfo_19" vType="DEFAULT_VEHTYPE" speedFactor="1.16" vaporized=""/>
    <tripinfo id="119" depart="61.00" departLane="14025159#6_0" departPos="5.10" departSpeed="0.00" departDelay="1.50" arrival="111.00" arrivalLane="14025222#7_0" arrivalPos="21.85" arrivalSpeed="11.05" duration="50.00" routeLength="388.59" waitingTime="6.00" waitingCount="1" stopTime="0.00" timeLoss="17.03" rerouteNo="0" devices="tripinfo_119" vType="DEFAULT_VEHTYPE" speedFactor="1.07" vaporized=""/>
    <tripinfo id="178" depart="89.00" departLane="683047946#0_0" departPos="5.10" departSpeed="0.00" departDelay="0.00" arrival="111.00" arrivalLane="-14026351_0" arrivalPos="13.35" arrivalSpeed="14.73" duration="22.00" routeLength="202.75" waitingTime="0.00" waitingCount="0" stopTime="0.00" timeLoss="7.30" rerouteNo="0" devices="tripinfo_178" vType="DEFAULT_VEHTYPE" speedFactor="1.08" vaporized=""/>
    <tripinfo id="130" depart="65.00" departLane="682551445#2_0" departPos="5.10" departSpeed="0.00" departDelay="0.00" arrival="113.00" arrivalLane="682551445#1_0" arrivalPos="78.77" arrivalSpeed="13.49" duration="48.00" routeLength="395.30" waitingTime="3.00" waitingCount="1" stopTime="0.00" timeLoss="18.55" rerouteNo="0" devices="tripinfo_130" vType="DEFAULT_VEHTYPE" speedFactor="1.03" vaporized=""/>
    <tripinfo id="26" depart="13.00" departLane="-14026336#6_0" departPos="5.10" departSpeed="0.00" departDelay="0.00" arrival="115.00" arrivalLane="683044783#1_0" arrivalPos="33.53" arrivalSpeed="7.59" duration="102.00" routeLength="936.91" waitingTime="0.00" waitingCount="0" stopTime="0.00" timeLoss="16.67" rerouteNo="0" devices="tripinfo_26" vType="DEFAULT_VEHTYPE" speedFactor="0.92" vaporized=""/>
    <tripinfo id="7" depart="4.00" departLane="14025708#1_0" departPos="5.10" departSpeed="0.00" departDelay="0.50" arrival="118.00" arrivalLane="14024684#7_0" arrivalPos="27.87" arrivalSpeed="9.59" duration="114.00" routeLength="1205.69" waitingTime="0.00" waitingCount="0" stopTime="0.00" timeLoss="15.32" rerouteNo="0" devices="tripinfo_7" vType="DEFAULT_VEHTYPE" speedFactor="0.89" vaporized=""/>
    <tripinfo id="24" depart="12.00" departLane="14025398#2_0" departPos="5.10" departSpeed="0.00" departDelay="0.00" arrival="118.00" arrivalLane="-682551442#4_0" arrivalPos="77.74" arrivalSpeed="9.18" duration="106.00" routeLength="801.02" waitingTime="2.00" waitingCount="1" stopTime="0.00" timeLoss="17.61" rerouteNo="0" devices="tripinfo_24" vType="DEFAULT_VEHTYPE" speedFactor="0.83" vaporized=""/>
    <tripinfo id="28" depart="14.00" departLane="-14025894#0_0" departPos="5.10" departSpeed="0.00" departDelay="0.00" arrival="118.00" arrivalLane="14026251#9_0" arrivalPos="47.79" arrivalSpeed="14.82" duration="104.00" routeLength="975.31" waitingTime="10.00" waitingCount="1" stopTime="0.00" timeLoss="35.44" rerouteNo="0" devices="tripinfo_28" vType="DEFAULT_VEHTYPE" speedFactor="1.13" vaporized=""/>
    <tripinfo id="32" depart="16.00" departLane="625743593_0" departPos="5.10" departSpeed="0.00" departDelay="0.00" arrival="122.00" arrivalLane="14026504#7_0" arrivalPos="47.00" arrivalSpeed="13.86" duration="106.00" routeLength="1290.58" waitingTime="0.00" waitingCount="0" stopTime="0.00" timeLoss="14.30" rerouteNo="0" devices="tripinfo_32" vType="DEFAULT_VEHTYPE" speedFactor="1.01" vaporized=""/>
    <tripinfo id="57" depart="30.00" departLane="682553785_0" departPos="1.62" departSpeed="0.00" departDelay="1.50" arrival="125.00" arrivalLane="682551442#6_0" arrivalPos="109.74" arrivalSpeed="12.61" duration="95.00" routeLength="1119.44" waitingTime="0.00" waitingCount="0" stopTime="0.00" timeLoss="19.59" rerouteNo="0" devices="tripinfo_57" vType="DEFAULT_VEHTYPE" speedFactor="1.14" vaporized=""/>
    <tripinfo id="109" depart="55.00" departLane="-14025399_0" departPos="5.10" departSpeed="0.00" departDelay="0.50" arrival="125.00" arrivalLane="-14026676#2_0" arrivalPos="77.60" arrivalSpeed="12.83" duration="70.00" routeLength="591.05" waitingTime="0.00" waitingCount="0" stopTime="0.00" timeLoss="9.43" rerouteNo="0" devices="tripinfo_109" vType="DEFAULT_VEHTYPE" speedFactor="0.96" vaporized=""/>
    <tripinfo id="15" depart="8.00" departLane="14027172#0_0" departPos="5.10" departSpeed="0.00" departDelay="0.50" arrival="126.00" arrivalLane="14026251#9_0" arrivalPos="47.79" arrivalSpeed="12.83" duration="118.00" routeLength="1025.08" waitingTime="2.00" waitingCount="1" stopTime="0.00" timeLoss="26.97" rerouteNo="0" devices="tripinfo_15" vType="DEFAULT_VEHTYPE" speedFactor="0.93" vaporized=""/>
    <tripinfo id="20" depart="10.00" departLane="14026100#0_0" departPos="5.10" departSpeed="0.00" departDelay="0.00" arrival="126.00" arrivalLane="-14024684#0_0" arrivalPos="43.31" arrivalSpeed="10.26" duration="116.00" routeLength="1170.62" waitingTime="4.00" waitingCount="1" stopTime="0.00" timeLoss="25.25" rerouteNo="0" devices="tripinfo_20" vType="DEFAULT_VEHTYPE" speedFactor="1.02" vaporized=""/>
    <tripinfo id="129" depart="65.00" departLane="-14026336#5_0" departPos="5.10" departSpeed="0.00" departDelay="0.50" arrival="126.00" arrivalLane="683043814#6_0" arrivalPos="109.40" arrivalSpeed="13.63" duration="61.00" routeLength="437.79" waitingTime="14.00" waitingCount="1" stopTime="0.00" timeLoss="24.94" rerouteNo="0" devices="tripinfo_129" vType="DEFAULT_VEHTYPE" speedFactor="1.01" vaporized=""/>
    <tripinfo id="133" depart="67.00" departLane="14025222#13_0" departPos="5.10" departSpeed="0.00" departDelay="0.50" arrival="126.00" arrivalLane="683050822#4_0" arrivalPos="35.12" arrivalSpeed="12.16" duration="59.00" routeLength="785.15" waitingTime="1.00" waitingCount="1" stopTime="0.00" timeLoss="19.35" rerouteNo="0" devices="tripinfo_133" vType="DEFAULT_VEHTYPE" speedFactor="1.04" vaporized=""/>
    <tripinfo id="106" depart="53.00" departLane="-683047946#1_0" departPos="5.10" departSpeed="0.00" departDelay="0.00" arrival="128.00" arrivalLane="-683044783#2_0" arrivalPos="117.27" arrivalSpeed="8.68" duration="75.00" routeLength="646.65" waitingTime="0.00" waitingCount="0" stopTime="0.00" timeLoss="21.19" rerouteNo="0" devices="tripinfo_106" vType="DEFAULT_VEHTYPE" speedFactor="1.01" vaporized=""/>
    <tripinfo id="90" depart="45.00" departLane="14026251#9_0" departPos="5.10" departSpeed="0.00" departDelay="0.00" arrival="130.00" arrivalLane="14026017_0" arrivalPos="23.50" arrivalSpeed="10.57" duration="85.00" routeLength="863.90" waitingTime="0.00" waitingCount="0" stopTime="0.00" timeLoss="17.97" rerouteNo="0" devices="tripinfo_90" vType="DEFAULT_VEHTYPE" speedFactor="1.02" vaporized=""/>
    <tripinfo id="110" depart="57.00" departLane="683047946#4_0" departPos="5.10" departSpeed="0.00" departDelay="2.00" arrival="130.00" arrivalLane="14025005_0" arrivalPos="30.76" arrivalSpeed="11.04" duration="73.00" routeLength="465.56" waitingTime="7.00" waitingCount="1" stopTime="0.00" timeLoss="31.78" rerouteNo="0" devices="tripinfo_110" vType="DEFAULT_VEHTYPE" speedFactor="0.93" vaporized=""/>
    <tripinfo id="29" depart="15.00" departLane="-14025708#0_0" departPos="0.20" departSpeed="0.00" departDelay="0.50" arrival="133.00" arrivalLane="-682551445#2_0" arrivalPos="109.38" arrivalSpeed="12.58" duration="118.00" routeLength="1235.70" waitingTime="0.00" waitingCount="0" stopTime="0.00" timeLoss="13.94" rerouteNo="0" devices="tripinfo_29" vType="DEFAULT_VEHTYPE" speedFactor="0.93" vaporized=""/>
    <tripinfo id="140" depart="70.00" departLane="14026251#2_0" departPos="5.10" departSpeed="0.00" departDelay="0.00" arrival="133.00" arrivalLane="-14026096#5_0" arrivalPos="0.20" arrivalSpeed="3.12" duration="63.00" routeLength="638.07" waitingTime="0.00" waitingCount="0" stopTime="0.00" timeLoss="20.72" rerouteNo="0" devices="tripinfo_140" vType="DEFAULT_VEHTYPE" speedFactor="1.11" vaporized=""/>
    <tripinfo id="186" depart="93.00" departLane="14026336#1_0" departPos="5.10" departSpeed="0.00" departDelay="0.00" arrival="133.00" arrivalLane="14026007#1_0" arrivalPos="79.41" arrivalSpeed="13.83" duration="40.00" routeLength="413.86" waitingTime="0.00" waitingCount="0" stopTime="0.00" timeLoss="10.15" rerouteNo="0" devices="tripinfo_186" vType="DEFAULT_VEHTYPE" speedFactor="1.08" vaporized=""/>
    <tripinfo id="218" depart="109.00" departLane="-14026326#0_0" departPos="5.10" departSpeed="0.00" departDelay="0.00" arrival="133.00" arrivalLane="625743596_0" arrivalPos="76.65" arrivalSpeed="15.57" duration="24.00" routeLength="258.38" waitingTime="0.00" waitingCount="0" stopTime="0.00" timeLoss="6.19" rerouteNo="0" devices="tripinfo_218" vType="DEFAULT_VEHTYPE" speedFactor="1.07" vaporized=""/>
    <tripinfo id="95" depart="50.00" departLane="-683043814#4_0" departPos="5.10" departSpeed="0.00" departDelay="2.50" arrival="134.00" arrivalLane="-14026504#4_0" arrivalPos="40.61" arrivalSpeed="14.10" duration="84.00" routeLength="647.20" waitingTime="16.00" waitingCount="1" stopTime="0.00" timeLoss="38.24" rerouteNo="0" devices="tripinfo_95" vType="DEFAULT_VEHTYPE" speedFactor="1.06" vaporized=""/>
    <tripinfo id="167" depart="84.00" departLane="682551442#7_0" departPos="5.10" departSpeed="0.00" departDelay="0.50" arrival="134.00" arrivalLane="682551442#13_0" arrivalPos="26.45" arrivalSpeed="11.04" duration="50.00" routeLength="510.33" waitingTime="0.00" waitingCount="0" stopTime="0.00" timeLoss="5.36" rerouteNo="0" devices="tripinfo_167" vType="DEFAULT_VEHTYPE" speedFactor="1.03" vaporized=""/>
    <tripinfo id="21" depart="11.00" departLane="-14026100#4_0" departPos="5.10" departSpeed="0.00" departDelay="0.50" arrival="139.00" arrivalLane="-14026504#9_0" arrivalPos="47.48" arrivalSpeed="13.81" duration="128.00" routeLength="1144.93" waitingTime="17.00" waitingCount="1" stopTime="0.00" timeLoss="44.83" rerouteNo="0" devices="tripinfo_21" vType="DEFAULT_VEHTYPE" speedFactor="1.01" vaporized=""/>
    <tripinfo id="91" depart="46.00" departLane="683050822#2_0" departPos="5.10" departSpeed="0.00" departDelay="0.50" arrival="139.00" arrivalLane="-14025159#3_0" arrivalPos="40.13" arrivalSpeed="9.04" duration="93.00" routeLength="775.59" waitingTime="3.00" waitingCount="1" stopTime="0.00" timeLoss="21.82" rerouteNo="0" devices="tripinfo_91" vType="DEFAULT_VEHTYPE" speedFactor="0.89" vaporized=""/>
    <tripinfo id="0" depart="0.00" departLane="14025398#4_0" departPos="4.42" departSpeed="0.00" departDelay="0.00" arrival="140.00" arrivalLane="-14019571#3_0" arrivalPos="34.24" arrivalSpeed="13.15" duration="140.00" routeLength="1600.02" waitingTime="0.00" waitingCount="0" stopTime="0.00" timeLoss="28.30" rerouteNo="0" devices="tripinfo_0" vType="DEFAULT_VEHTYPE" speedFactor="1.06" vaporized=""/>
    <tripinfo id="102" depart="51.00" departLane="-683270320_0" departPos="5.10" departSpeed="0.00" departDelay="0.00" arrival="140.00" arrivalLane="-14026100#1_0" arrivalPos="39.94" arrivalSpeed="12.85" duration="89.00" routeLength="1198.95" waitingTime="0.00" waitingCount="0" stopTime="0.00" timeLoss="13.44" rerouteNo="0" devices="tripinfo_102" vType="DEFAULT_VEHTYPE" speedFactor="0.97" vaporized=""/>
    <tripinfo id="168" depart="86.00" departLane="-14026100#2_0" departPos="5.10" departSpeed="0.00" departDelay="2.00" arrival="140.00" arrivalLane="14027172#5_0" arrivalPos="31.21" arrivalSpeed="10.90" duration="54.00" routeLength="553.27" waitingTime="0.00" waitingCount="0" stopTime="0.00" timeLoss="10.16" rerouteNo="0" devices="tripinfo_168" vType="DEFAULT_VEHTYPE" speedFactor="0.98" vaporized=""/>
    <tripinfo id="63" depart="32.00" departLane="-14019571#0_0" departPos="5.10" departSpeed="0.00" departDelay="0.50" arrival="141.00" arrivalLane="683043814#4_0" arrivalPos="109.40" arrivalSpeed="13.52" duration="109.00" routeLength="760.95" waitingTime="24.00" waitingCount="2" stopTime="0.00" timeLoss="46.11" rerouteNo="0" devices="tripinfo_63" vType="DEFAULT_VEHTYPE" speedFactor="0.99" vaporized=""/>
    <tripinfo id="74" depart="37.00" departLane="-14026096#0_0" departPos="5.10" departSpeed="0.00" departDelay="0.00" arrival="143.00" arrivalLane="-14026937#3_0" arrivalPos="124.04" arrivalSpeed="13.16" duration="106.00" routeLength="952.25" waitingTime="9.00" waitingCount="1" stopTime="0.00" timeLoss="30.54" rerouteNo="0" devices="tripinfo_74" vType="DEFAULT_VEHTYPE" speedFactor="0.96" vaporized=""/>
    <tripinfo id="157" depart="79.00" departLane="14026504#9_0" departPos="5.10" departSpeed="0.00" departDelay="0.50" arrival="143.00" arrivalLane="682551446#1_0" arrivalPos="50.31" arrivalSpeed="11.43" duration="64.00" routeLength="626.28" waitingTime="0.00" waitingCount="0" stopTime="0.00" timeLoss="11.63" rerouteNo="0" devices="tripinfo_157" vType="DEFAULT_VEHTYPE" speedFactor="1.08" vaporized=""/>
    <tripinfo id="78" depart="44.00" departLane="-14027562#0_0" departPos="5.10" departSpeed="0.00" departDelay="5.00" arrival="145.00" arrivalLane="14025159#4_0" arrivalPos="41.57" arrivalSpeed="10.65" duration="101.00" routeLength="977.98" waitingTime="0.00" waitingCount="0" stopTime="0.00" timeLoss="23.87" rerouteNo="0" devices="tripinfo_78" vType="DEFAULT_VEHTYPE" speedFactor="1.01" vaporized=""/>
    <tripinfo id="120" depart="60.00" departLane="-683043814#3_0" departPos="5.10" departSpeed="0.00" departDelay="0.00" arrival="145.00" arrivalLane="14025159#2_0" arrivalPos="43.71" arrivalSpeed="9.54" duration="85.00" routeLength="578.64" waitingTime="11.00" waitingCount="1" stopTime="0.00" timeLoss="37.22" rerouteNo="0" devices="tripinfo_120" vType="DEFAULT_VEHTYPE" speedFactor="0.94" vaporized=""/>
    <tripinfo id="79" depart="40.00" departLane="-14026251#1_0" departPos="5.10" departSpeed="0.00" departDelay="0.50" arrival="147.00" arrivalLane="-14026100#4_0" arrivalPos="40.08" arrivalSpeed="13.28" duration="107.00" routeLength="1015.63" waitingTime="8.00" waitingCount="1" stopTime="0.00" timeLoss="38.72" rerouteNo="0" devices="tripinfo_79" vType="DEFAULT_VEHTYPE" speedFactor="1.09" vaporized=""/>
    <tripinfo id="112" depart="56.00" departLane="-14024684#4_0" departPos="5.10" departSpeed="0.00" departDelay="0.00" arrival="147.00" arrivalLane="14025159#2_0" arrivalPos="43.71" arrivalSpeed="11.38" duration="91.00" routeLength="785.38" waitingTime="7.00" waitingCount="1" stopTime="0.00" timeLoss="34.96" rerouteNo="0" devices="tripinfo_112" vType="DEFAULT_VEHTYPE" speedFactor="1.10" vaporized=""/>
    <tripinfo id="113" depart="57.00" departLane="14019569#8_0" departPos="5.10" departSpeed="0.00" departDelay="0.50" arrival="148.00" arrivalLane="682551442#10_0" arrivalPos="48.47" arrivalSpeed="10.53" duration="91.00" routeLength="885.00" waitingTime="0.00" waitingCount="0" stopTime="0.00" timeLoss="16.12" rerouteNo="0" devices="tripinfo_113" vType="DEFAULT_VEHTYPE" speedFactor="1.01" vaporized=""/>
    <tripinfo id="40" depart="20.00" departLane="14024696#0_0" departPos="5.10" departSpeed="0.00" departDelay="0.00" arrival="150.00" arrivalLane="-14026336#8_0" arrivalPos="47.75" arrivalSpeed="11.07" duration="130.00" routeLength="1305.18" waitingTime="0.00" waitingCount="0" stopTime="0.00" timeLoss="23.10" rerouteNo="0" devices="tripinfo_40" vType="DEFAULT_VEHTYPE" speedFactor="1.03" vaporized=""/>
    <tripinfo id="60" depart="30.00" departLane="14026466_0" departPos="5.10" departSpeed="0.00" departDelay="0.00" arrival="150.00" arrivalLane="14024684#4_0" arrivalPos="41.72" arrivalSpeed="11.59" duration="120.00" routeLength="1299.06" waitingTime="5.00" waitingCount="1" stopTime="0.00" timeLoss="29.92" rerouteNo="0" devices="tripinfo_60" vType="DEFAULT_VEHTYPE" speedFactor="1.08" vaporized=""/>
    <tripinfo id="71" depart="36.00" departLane="-14026336#5_0" departPos="5.10" departSpeed="0.00" departDelay="0.50" arrival="151.00" arrivalLane="682551442#7_0" arrivalPos="98.18" arrivalSpeed="10.76" duration="115.00" routeLength="542.89" waitingTime="51.00" waitingCount="2" stopTime="0.00" timeLoss="67.45" rerouteNo="0" devices="tripinfo_71" vType="DEFAULT_VEHTYPE" speedFactor="0.97" vaporized=""/>
    <tripinfo id="141" depart="71.00" departLane="14025398#1_0" departPos="5.10" departSpeed="0.00" departDelay="0.50" arrival="152.00" arrivalLane="-14026336#9_0" arrivalPos="47.34" arrivalSpeed="12.29" duration="81.00" routeLength="686.70" waitingTime="0.00" waitingCount="0" stopTime="0.00" timeLoss="33.78" rerouteNo="0" devices="tripinfo_141" vType="DEFAULT_VEHTYPE" speedFactor="1.16" vaporized=""/>
    <tripinfo id="49" depart="25.00" departLane="683047946#5_0" departPos="5.10" departSpeed="0.00" departDelay="0.50" arrival="154.00" arrivalLane="682551442#14_0" arrivalPos="31.75" arrivalSpeed="9.40" duration="129.00" routeLength="1024.51" waitingTime="7.00" waitingCount="2" stopTime="0.00" timeLoss="26.73" rerouteNo="0" devices="tripinfo_49" vType="DEFAULT_VEHTYPE" speedFactor="0.85" vaporized=""/>