<?xml version="1.0" encoding="UTF-8"?>

<!-- generated on 2025-02-14 16:04:54 by Eclipse SUMO GUI Version 1.22.0
<sumoConfiguration xmlns:xsi="http://www.w3.org/2001/XMLSchema-instance" xsi:noNamespaceSchemaLocation="http://sumo.dlr.de/xsd/sumoConfiguration.xsd">

    <input>
        <net-file value="C:\Users\jones\Documents\GMU\Spring 2025\CS690\Projects\CS690-MiniProj1\lyons\AM\lyons_90_static.net.xml"/>
        <route-files value="C:\Users\jones\Documents\GMU\Spring 2025\CS690\Projects\CS690-MiniProj1\lyons\AM\lyons_AM.rou.xml"/>
        <additional-files value="C:\Users\jones\Documents\GMU\Spring 2025\CS690\Projects\CS690-MiniProj1\lyons\AM\detectors.add.xml"/>
    </input>

    <output>
        <tripinfo-output value="C:\Users\jones\Documents\GMU\Spring 2025\CS690\Projects\CS690-MiniProj1\lyons\AM\tripinfo.xml"/>
    </output>

</sumoConfiguration>
-->

<tripinfos xmlns:xsi="http://www.w3.org/2001/XMLSchema-instance" xsi:noNamespaceSchemaLocation="http://sumo.dlr.de/xsd/tripinfo_file.xsd">
    <tripinfo id="4" depart="4.00" departLane="-683043814#4_0" departPos="5.10" departSpeed="0.00" departDelay="0.00" arrival="54.00" arrivalLane="-14019622#1_0" arrivalPos="77.07" arrivalSpeed="13.90" duration="50.00" routeLength="523.26" waitingTime="0.00" waitingCount="0" stopTime="0.00" timeLoss="10.64" rerouteNo="1" devices="tripinfo_4 routing_4" vType="DEFAULT_VEHTYPE" speedFactor="1.01" vaporized=""/>
    <tripinfo id="35" depart="35.00" departLane="-14026096#5_0" departPos="0.20" departSpeed="0.00" departDelay="0.00" arrival="79.00" arrivalLane="683044783#4_0" arrivalPos="35.02" arrivalSpeed="8.39" duration="44.00" routeLength="467.00" waitingTime="0.00" waitingCount="0" stopTime="0.00" timeLoss="6.17" rerouteNo="1" devices="tripinfo_35 routing_35" vType="DEFAULT_VEHTYPE" speedFactor="1.05" vaporized=""/>
    <tripinfo id="14" depart="14.00" departLane="625743596_0" departPos="5.10" departSpeed="0.00" departDelay="0.00" arrival="96.00" arrivalLane="14025222#10_0" arrivalPos="54.87" arrivalSpeed="10.72" duration="82.00" routeLength="1050.24" waitingTime="0.00" waitingCount="0" stopTime="0.00" timeLoss="16.63" rerouteNo="1" devices="tripinfo_14 routing_14" vType="DEFAULT_VEHTYPE" speedFactor="1.03" vaporized=""/>
    <tripinfo id="24" depart="24.00" departLane="14025398#2_0" departPos="5.10" departSpeed="0.00" departDelay="0.00" arrival="106.00" arrivalLane="-682551442#4_0" arrivalPos="77.74" arrivalSpeed="11.59" duration="82.00" routeLength="801.02" waitingTime="0.00" waitingCount="0" stopTime="0.00" timeLoss="12.12" rerouteNo="1" devices="tripinfo_24 routing_24" vType="DEFAULT_VEHTYPE" speedFactor="1.05" vaporized=""/>
    <tripinfo id="6" depart="6.00" departLane="-14019622#0_0" departPos="5.10" departSpeed="0.00" departDelay="0.00" arrival="108.00" arrivalLane="-14026096#3_0" arrivalPos="41.07" arrivalSpeed="13.87" duration="102.00" routeLength="1111.76" waitingTime="0.00" waitingCount="0" stopTime="0.00" timeLoss="21.64" rerouteNo="1" devices="tripinfo_6 routing_6" vType="DEFAULT_VEHTYPE" speedFactor="1.08" vaporized=""/>
    <tripinfo id="18" depart="18.00" departLane="14027562#4_0" departPos="5.10" departSpeed="0.00" departDelay="0.00" arrival="110.00" arrivalLane="14025222#6_0" arrivalPos="0.20" arrivalSpeed="8.55" duration="92.00" routeLength="736.19" waitingTime="0.00" waitingCount="0" stopTime="0.00" timeLoss="12.57" rerouteNo="1" devices="tripinfo_18 routing_18" vType="DEFAULT_VEHTYPE" speedFactor="0.83" vaporized=""/>
    <tripinfo id="47" depart="47.00" departLane="-14024684#7_0" departPos="5.10" departSpeed="0.00" departDelay="0.00" arrival="122.00" arrivalLane="-682551446#0_0" arrivalPos="42.40" arrivalSpeed="10.21" duration="75.00" routeLength="780.64" waitingTime="0.00" waitingCount="0" stopTime="0.00" timeLoss="12.96" rerouteNo="1" devices="tripinfo_47 routing_47" vType="DEFAULT_VEHTYPE" speedFactor="1.02" vaporized=""/>
    <tripinfo id="88" depart="88.00" departLane="-14025159#0_0" departPos="5.10" departSpeed="0.00" departDelay="0.00" arrival="122.00" arrivalLane="-683044783#6_0" arrivalPos="110.32" arrivalSpeed="10.40" duration="34.00" routeLength="287.17" waitingTime="0.00" waitingCount="0" stopTime="0.00" timeLoss="9.07" rerouteNo="1" devices="tripinfo_88 routing_88" vType="DEFAULT_VEHTYPE" speedFactor="1.18" vaporized=""/>
    <tripinfo id="41" depart="41.00" departLane="14025159#0_0" departPos="5.10" departSpeed="0.00" departDelay="0.00" arrival="134.00" arrivalLane="682553777#1_0" arrivalPos="111.94" arrivalSpeed="20.75" duration="93.00" routeLength="936.75" waitingTime="0.00" waitingCount="0" stopTime="0.00" timeLoss="15.84" rerouteNo="1" devices="tripinfo_41 routing_41" vType="DEFAULT_VEHTYPE" speedFactor="0.88" vaporized=""/>
    <tripinfo id="52" depart="52.00" departLane="-14026336#6_0" departPos="5.10" departSpeed="0.00" departDelay="0.00" arrival="134.00" arrivalLane="14025532_0" arrivalPos="87.58" arrivalSpeed="13.49" duration="82.00" routeLength="805.43" waitingTime="0.00" waitingCount="0" stopTime="0.00" timeLoss="10.97" rerouteNo="1" devices="tripinfo_52 routing_52" vType="DEFAULT_VEHTYPE" speedFactor="0.97" vaporized=""/>
    <tripinfo id="32" depart="32.00" departLane="625743593_0" departPos="5.10" departSpeed="0.00" departDelay="0.00" arrival="135.00" arrivalLane="14026504#7_0" arrivalPos="47.00" arrivalSpeed="13.20" duration="103.00" routeLength="1297.70" waitingTime="0.00" waitingCount="0" stopTime="0.00" timeLoss="13.93" rerouteNo="1" devices="tripinfo_32 routing_32" vType="DEFAULT_VEHTYPE" speedFactor="1.03" vaporized=""/>
    <tripinfo id="76" depart="76.00" departLane="-683044783#6_0" departPos="5.10" departSpeed="0.00" departDelay="0.00" arrival="139.00" arrivalLane="14020103_0" arrivalPos="26.10" arrivalSpeed="15.07" duration="63.00" routeLength="664.09" waitingTime="0.00" waitingCount="0" stopTime="0.00" timeLoss="13.55" rerouteNo="1" devices="tripinfo_76 routing_76" vType="DEFAULT_VEHTYPE" speedFactor="1.17" vaporized=""/>
    <tripinfo id="53" depart="53.00" departLane="-14025159#8_0" departPos="5.10" departSpeed="0.00" departDelay="0.00" arrival="140.00" arrivalLane="-683047939#1_0" arrivalPos="44.36" arrivalSpeed="12.28" duration="87.00" routeLength="781.76" waitingTime="0.00" waitingCount="0" stopTime="0.00" timeLoss="13.95" rerouteNo="1" devices="tripinfo_53 routing_53" vType="DEFAULT_VEHTYPE" speedFactor="0.89" vaporized=""/>
    <tripinfo id="0" depart="0.00" departLane="14025398#4_0" departPos="4.42" departSpeed="0.00" departDelay="0.00" arrival="148.00" arrivalLane="-14019571#3_0" arrivalPos="34.24" arrivalSpeed="12.65" duration="148.00" routeLength="1600.02" waitingTime="1.00" waitingCount="1" stopTime="0.00" timeLoss="36.66" rerouteNo="1" devices="tripinfo_0 routing_0" vType="DEFAULT_VEHTYPE" speedFactor="1.06" vaporized=""/>
    <tripinfo id="30" depart="30.00" departLane="683056203_0" departPos="5.10" departSpeed="0.00" departDelay="0.00" arrival="153.00" arrivalLane="14025532_0" arrivalPos="87.58" arrivalSpeed="14.95" duration="123.00" routeLength="1377.24" waitingTime="0.00" waitingCount="0" stopTime="0.00" timeLoss="23.63" rerouteNo="1" devices="tripinfo_30 routing_30" vType="DEFAULT_VEHTYPE" speedFactor="1.09" vaporized=""/>
    <tripinfo id="100" depart="100.00" departLane="683047946#4_0" departPos="5.10" departSpeed="0.00" departDelay="0.00" arrival="155.00" arrivalLane="683043814#2_0" arrivalPos="117.41" arrivalSpeed="14.22" duration="55.00" routeLength="511.96" waitingTime="0.00" waitingCount="0" stopTime="0.00" timeLoss="14.84" rerouteNo="1" devices="tripinfo_100 routing_100" vType="DEFAULT_VEHTYPE" speedFactor="1.04" vaporized=""/>
    <tripinfo id="119" depart="119.00" departLane="14025159#6_0" departPos="5.10" departSpeed="0.00" departDelay="0.00" arrival="158.00" arrivalLane="14025222#7_0" arrivalPos="21.85" arrivalSpeed="12.37" duration="39.00" routeLength="388.59" waitingTime="0.00" waitingCount="0" stopTime="0.00" timeLoss="7.50" rerouteNo="1" devices="tripinfo_119 routing_119" vType="DEFAULT_VEHTYPE" speedFactor="1.14" vaporized=""/>
    <tripinfo id="110" depart="110.00" departLane="683047946#4_0" departPos="5.10" departSpeed="0.00" departDelay="0.00" arrival="159.00" arrivalLane="14025005_0" arrivalPos="30.76" arrivalSpeed="12.06" duration="49.00" routeLength="471.93" waitingTime="0.00" waitingCount="0" stopTime="0.00" timeLoss="14.77" rerouteNo="1" devices="tripinfo_110 routing_110" vType="DEFAULT_VEHTYPE" speedFactor="1.17" vaporized=""/>
    <tripinfo id="1" depart="1.00" departLane="-14026436_0" departPos="5.10" departSpeed="0.00" departDelay="0.00" arrival="163.00" arrivalLane="-14026251#1_0" arrivalPos="41.17" arrivalSpeed="11.84" duration="162.00" routeLength="1272.38" waitingTime="37.00" waitingCount="1" stopTime="0.00" timeLoss="63.27" rerouteNo="1" devices="tripinfo_1 routing_1" vType="DEFAULT_VEHTYPE" speedFactor="0.94" vaporized=""/>
    <tripinfo id="28" depart="28.00" departLane="-14025894#0_0" departPos="5.10" departSpeed="0.00" departDelay="0.00" arrival="164.00" arrivalLane="14026251#9_0" arrivalPos="47.79" arrivalSpeed="11.23" duration="136.00" routeLength="975.31" waitingTime="18.00" waitingCount="1" stopTime="0.00" timeLoss="44.36" rerouteNo="1" devices="tripinfo_28 routing_28" vType="DEFAULT_VEHTYPE" speedFactor="0.86" vaporized=""/>
    <tripinfo id="79" depart="79.00" departLane="-14026251#1_0" departPos="5.10" departSpeed="0.00" departDelay="0.00" arrival="167.00" arrivalLane="-14026100#4_0" arrivalPos="40.08" arrivalSpeed="12.80" duration="88.00" routeLength="1015.63" waitingTime="0.00" waitingCount="0" stopTime="0.00" timeLoss="15.41" rerouteNo="1" devices="tripinfo_79 routing_79" vType="DEFAULT_VEHTYPE" speedFactor="1.02" vaporized=""/>
    <tripinfo id="63" depart="63.00" departLane="-14019571#0_0" departPos="5.10" departSpeed="0.00" departDelay="0.00" arrival="170.00" arrivalLane="683043814#4_0" arrivalPos="109.40" arrivalSpeed="12.68" duration="107.00" routeLength="761.48" waitingTime="21.00" waitingCount="1" stopTime="0.00" timeLoss="44.22" rerouteNo="1" devices="tripinfo_63 routing_63" vType="DEFAULT_VEHTYPE" speedFactor="0.93" vaporized=""/>
    <tripinfo id="25" depart="25.00" departLane="-682551442#3_0" departPos="5.10" departSpeed="0.00" departDelay="0.00" arrival="171.00" arrivalLane="-14026096#9_0" arrivalPos="43.80" arrivalSpeed="11.88" duration="146.00" routeLength="1400.81" waitingTime="0.00" waitingCount="0" stopTime="0.00" timeLoss="18.93" rerouteNo="1" devices="tripinfo_25 routing_25" vType="DEFAULT_VEHTYPE" speedFactor="0.89" vaporized=""/>
    <tripinfo id="66" depart="66.00" departLane="682551445#0_0" departPos="5.10" departSpeed="0.00" departDelay="0.00" arrival="177.00" arrivalLane="683044783#6_0" arrivalPos="110.32" arrivalSpeed="9.32" duration="111.00" routeLength="1118.76" waitingTime="8.00" waitingCount="1" stopTime="0.00" timeLoss="33.04" rerouteNo="1" devices="tripinfo_66 routing_66" vType="DEFAULT_VEHTYPE" speedFactor="1.15" vaporized=""/>
    <tripinfo id="91" depart="91.00" departLane="683050822#2_0" departPos="5.10" departSpeed="0.00" departDelay="0.00" arrival="179.00" arrivalLane="-14025159#3_0" arrivalPos="40.13" arrivalSpeed="10.87" duration="88.00" routeLength="775.59" waitingTime="2.00" waitingCount="1" stopTime="0.00" timeLoss="26.56" rerouteNo="1" devices="tripinfo_91 routing_91" vType="DEFAULT_VEHTYPE" speedFactor="1.03" vaporized=""/>
    <tripinfo id="78" depart="79.00" departLane="-14027562#0_0" departPos="5.10" departSpeed="0.00" departDelay="1.00" arrival="182.00" arrivalLane="14025159#4_0" arrivalPos="41.57" arrivalSpeed="10.33" duration="103.00" routeLength="1159.45" waitingTime="0.00" waitingCount="0" stopTime="0.00" timeLoss="22.55" rerouteNo="1" devices="tripinfo_78 routing_78" vType="DEFAULT_VEHTYPE" speedFactor="0.99" vaporized=""/>
    <tripinfo id="60" depart="60.00" departLane="14026466_0" departPos="5.10" departSpeed="0.00" departDelay="0.00" arrival="183.00" arrivalLane="14024684#4_0" arrivalPos="41.72" arrivalSpeed="10.58" duration="123.00" routeLength="1272.82" waitingTime="0.00" waitingCount="0" stopTime="0.00" timeLoss="19.76" rerouteNo="1" devices="tripinfo_60 routing_60" vType="DEFAULT_VEHTYPE" speedFactor="0.95" vaporized=""/>
    <tripinfo id="90" depart="90.00" departLane="14026251#9_0" departPos="5.10" departSpeed="0.00" departDelay="0.00" arrival="183.00" arrivalLane="14026017_0" arrivalPos="23.50" arrivalSpeed="8.89" duration="93.00" routeLength="868.97" waitingTime="0.00" waitingCount="0" stopTime="0.00" timeLoss="14.02" rerouteNo="1" devices="tripinfo_90 routing_90" vType="DEFAULT_VEHTYPE" speedFactor="0.90" vaporized=""/>
    <tripinfo id="106" depart="106.00" departLane="-683047946#1_0" departPos="5.10" departSpeed="0.00" departDelay="0.00" arrival="183.00" arrivalLane="-683044783#2_0" arrivalPos="117.27" arrivalSpeed="7.68" duration="77.00" routeLength="646.65" waitingTime="0.00" waitingCount="0" stopTime="0.00" timeLoss="15.66" rerouteNo="1" devices="tripinfo_106 routing_106" vType="DEFAULT_VEHTYPE" speedFactor="0.88" vaporized=""/>
    <tripinfo id="132" depart="132.00" departLane="625743585#1_0" departPos="5.10" departSpeed="0.00" departDelay="0.00" arrival="186.00" arrivalLane="14026100#0_0" arrivalPos="136.53" arrivalSpeed="15.44" duration="54.00" routeLength="203.85" waitingTime="32.00" waitingCount="1" stopTime="0.00" timeLoss="38.84" rerouteNo="1" devices="tripinfo_132 routing_132" vType="DEFAULT_VEHTYPE" speedFactor="1.12" vaporized=""/>
    <tripinfo id="102" depart="104.00" departLane="-683270320_0" departPos="5.10" departSpeed="0.00" departDelay="2.00" arrival="187.00" arrivalLane="-14026100#1_0" arrivalPos="39.94" arrivalSpeed="14.26" duration="83.00" routeLength="1198.95" waitingTime="0.00" waitingCount="0" stopTime="0.00" timeLoss="15.76" rerouteNo="1" devices="tripinfo_102 routing_102" vType="DEFAULT_VEHTYPE" speedFactor="1.09" vaporized=""/>
    <tripinfo id="36" depart="36.00" departLane="682551442#9_0" departPos="0.20" departSpeed="0.00" departDelay="0.00" arrival="188.00" arrivalLane="-14027172#0_0" arrivalPos="41.33" arrivalSpeed="11.61" duration="152.00" routeLength="1872.47" waitingTime="0.00" waitingCount="0" stopTime="0.00" timeLoss="30.55" rerouteNo="1" devices="tripinfo_36 routing_36" vType="DEFAULT_VEHTYPE" speedFactor="1.12" vaporized=""/>
    <tripinfo id="109" depart="109.00" departLane="-14025399_0" departPos="5.10" departSpeed="0.00" departDelay="0.00" arrival="191.00" arrivalLane="-14026676#2_0" arrivalPos="77.60" arrivalSpeed="11.15" duration="82.00" routeLength="591.05" waitingTime="0.00" waitingCount="0" stopTime="0.00" timeLoss="12.99" rerouteNo="1" devices="tripinfo_109 routing_109" vType="DEFAULT_VEHTYPE" speedFactor="0.85" vaporized=""/>
    <tripinfo id="46" depart="46.00" departLane="14026768#1_0" departPos="5.10" departSpeed="0.00" departDelay="0.00" arrival="194.00" arrivalLane="-683044783#1_0" arrivalPos="33.53" arrivalSpeed="9.30" duration="148.00" routeLength="1360.32" waitingTime="19.00" waitingCount="1" stopTime="0.00" timeLoss="53.84" rerouteNo="1" devices="tripinfo_46 routing_46" vType="DEFAULT_VEHTYPE" speedFactor="1.16" vaporized=""/>
    <tripinfo id="104" depart="105.00" departLane="-682551442#7_0" departPos="5.10" departSpeed="0.00" departDelay="1.00" arrival="196.00" arrivalLane="683050822#3_0" arrivalPos="0.20" arrivalSpeed="13.76" duration="91.00" routeLength="842.38" waitingTime="0.00" waitingCount="0" stopTime="0.00" timeLoss="13.10" rerouteNo="1" devices="tripinfo_104 routing_104" vType="DEFAULT_VEHTYPE" speedFactor="0.90" vaporized=""/>
    <tripinfo id="38" depart="38.00" departLane="682553786_0" departPos="5.10" departSpeed="0.00" departDelay="0.00" arrival="199.00" arrivalLane="-683047946#7_0" arrivalPos="109.64" arrivalSpeed="11.95" duration="161.00" routeLength="2005.19" waitingTime="0.00" waitingCount="0" stopTime="0.00" timeLoss="30.99" rerouteNo="1" devices="tripinfo_38 routing_38" vType="DEFAULT_VEHTYPE" speedFactor="0.93" vaporized=""/>
    <tripinfo id="178" depart="178.00" departLane="683047946#0_0" departPos="5.10" departSpeed="0.00" departDelay="0.00" arrival="200.00" arrivalLane="-14026351_0" arrivalPos="13.35" arrivalSpeed="14.00" duration="22.00" routeLength="202.75" waitingTime="0.00" waitingCount="0" stopTime="0.00" timeLoss="6.85" rerouteNo="1" devices="tripinfo_178 routing_178" vType="DEFAULT_VEHTYPE" speedFactor="1.04" vaporized=""/>
    <tripinfo id="144" depart="144.00" departLane="-683043814#5_0" departPos="5.10" departSpeed="0.00" departDelay="0.00" arrival="202.00" arrivalLane="-14026504#3_0" arrivalPos="40.92" arrivalSpeed="12.34" duration="58.00" routeLength="391.68" waitingTime="7.00" waitingCount="3" stopTime="0.00" timeLoss="22.68" rerouteNo="1" devices="tripinfo_144 routing_144" vType="DEFAULT_VEHTYPE" speedFactor="0.91" vaporized=""/>
    <tripinfo id="61" depart="61.00" departLane="14026504#8_0" departPos="5.10" departSpeed="0.00" departDelay="0.00" arrival="203.00" arrivalLane="14024684#0_0" arrivalPos="43.32" arrivalSpeed="12.32" duration="142.00" routeLength="1173.27" waitingTime="19.00" waitingCount="1" stopTime="0.00" timeLoss="58.98" rerouteNo="1" devices="tripinfo_61 routing_61" vType="DEFAULT_VEHTYPE" speedFactor="1.13" vaporized=""/>
    <tripinfo id="42" depart="42.00" departLane="-682553774#2_0" departPos="5.10" departSpeed="0.00" departDelay="0.00" arrival="205.00" arrivalLane="-14026100#4_0" arrivalPos="40.08" arrivalSpeed="12.63" duration="163.00" routeLength="2593.32" waitingTime="0.00" waitingCount="0" stopTime="0.00" timeLoss="24.01" rerouteNo="1" devices="tripinfo_42 routing_42" vType="DEFAULT_VEHTYPE" speedFactor="0.94" vaporized=""/>
    <tripinfo id="151" depart="174.00" departLane="625743585#1_0" departPos="5.10" departSpeed="0.00" departDelay="23.00" arrival="205.00" arrivalLane="14025159#1_0" arrivalPos="40.76" arrivalSpeed="10.83" duration="31.00" routeLength="259.46" waitingTime="0.00" waitingCount="0" stopTime="0.00" timeLoss="5.28" rerouteNo="1" devices="tripinfo_151 routing_151" vType="DEFAULT_VEHTYPE" speedFactor="0.97" vaporized=""/>
    <tripinfo id="140" depart="140.00" departLane="14026251#2_0" departPos="5.10" departSpeed="0.00" departDelay="0.00" arrival="206.00" arrivalLane="-14026096#5_0" arrivalPos="0.20" arrivalSpeed="2.36" duration="66.00" routeLength="638.07" waitingTime="0.00" waitingCount="0" stopTime="0.00" timeLoss="12.71" rerouteNo="1" devices="tripinfo_140 routing_140" vType="DEFAULT_VEHTYPE" speedFactor="0.91" vaporized=""/>
    <tripinfo id="45" depart="45.00" departLane="-14025159#7_0" departPos="5.10" departSpeed="0.00" departDelay="0.00" arrival="208.00" arrivalLane="14025386#1_0" arrivalPos="48.02" arrivalSpeed="12.03" duration="163.00" routeLength="1227.05" waitingTime="32.00" waitingCount="1" stopTime="0.00" timeLoss="61.40" rerouteNo="1" devices="tripinfo_45 routing_45" vType="DEFAULT_VEHTYPE" speedFactor="0.94" vaporized=""/>
    <tripinfo id="113" depart="116.00" departLane="14019569#8_0" departPos="5.10" departSpeed="0.00" departDelay="3.00" arrival="210.00" arrivalLane="682551442#10_0" arrivalPos="48.47" arrivalSpeed="10.12" duration="94.00" routeLength="899.69" waitingTime="0.00" waitingCount="0" stopTime="0.00" timeLoss="14.54" rerouteNo="1" devices="tripinfo_113 routing_113" vType="DEFAULT_VEHTYPE" speedFactor="1.02" vaporized=""/>
    <tripinfo id="65" depart="65.00" departLane="-14026768#1_0" departPos="5.10" departSpeed="0.00" departDelay="0.00" arrival="212.00" arrivalLane="-14024684#5_0" arrivalPos="40.28" arrivalSpeed="13.09" duration="147.00" routeLength="1119.54" waitingTime="25.00" waitingCount="3" stopTime="0.00" timeLoss="68.11" rerouteNo="1" devices="tripinfo_65 routing_65" vType="DEFAULT_VEHTYPE" speedFactor="1.18" vaporized=""/>
    <tripinfo id="89" depart="89.00" departLane="-683043814#5_0" departPos="5.10" departSpeed="0.00" departDelay="0.00" arrival="214.00" arrivalLane="-683050822#2_0" arrivalPos="101.37" arrivalSpeed="17.16" duration="125.00" routeLength="981.25" waitingTime="33.00" waitingCount="1" stopTime="0.00" timeLoss="56.27" rerouteNo="1" devices="tripinfo_89 routing_89" vType="DEFAULT_VEHTYPE" speedFactor="1.10" vaporized=""/>
    <tripinfo id="97" depart="97.00" departLane="-683047942#0_0" departPos="5.10" departSpeed="0.00" departDelay="0.00" arrival="215.00" arrivalLane="682551442#14_0" arrivalPos="31.75" arrivalSpeed="10.91" duration="118.00" routeLength="1208.53" waitingTime="0.00" waitingCount="0" stopTime="0.00" timeLoss="16.16" rerouteNo="1" devices="tripinfo_97 routing_97" vType="DEFAULT_VEHTYPE" speedFactor="1.04" vaporized=""/>
    <tripinfo id="48" depart="48.00" departLane="683270315_0" departPos="5.10" departSpeed="0.00" departDelay="0.00" arrival="218.00" arrivalLane="14024684#0_0" arrivalPos="43.32" arrivalSpeed="10.28" duration="170.00" routeLength="2037.41" waitingTime="0.00" waitingCount="0" stopTime="0.00" timeLoss="19.94" rerouteNo="1" devices="tripinfo_48 routing_48" vType="DEFAULT_VEHTYPE" speedFactor="1.01" vaporized=""/>
    <tripinfo id="167" depart="167.00" departLane="682551442#7_0" departPos="5.10" departSpeed="0.00" departDelay="0.00" arrival="219.00" arrivalLane="682551442#13_0" arrivalPos="26.45" arrivalSpeed="10.14" duration="52.00" routeLength="510.33" waitingTime="0.00" waitingCount="0" stopTime="0.00" timeLoss="5.51" rerouteNo="1" devices="tripinfo_167 routing_167" vType="DEFAULT_VEHTYPE" speedFactor="1.00" vaporized=""/>
    <tripinfo id="148" depart="148.00" departLane="-683044783#0_0" departPos="5.10" departSpeed="0.00" departDelay="0.00" arrival="223.00" arrivalLane="-14019569#5_0" arrivalPos="41.67" arrivalSpeed="12.14" duration="75.00" routeLength="763.75" waitingTime="0.00" waitingCount="0" stopTime="0.00" timeLoss="16.68" rerouteNo="1" devices="tripinfo_148 routing_148" vType="DEFAULT_VEHTYPE" speedFactor="1.02" vaporized=""/>
    <tripinfo id="125" depart="125.00" departLane="-14026937#2_0" departPos="5.10" departSpeed="0.00" departDelay="0.00" arrival="225.00" arrivalLane="14026336#7_0" arrivalPos="46.56" arrivalSpeed="10.25" duration="100.00" routeLength="866.55" waitingTime="8.00" waitingCount="1" stopTime="0.00" timeLoss="21.20" rerouteNo="1" devices="tripinfo_125 routing_125" vType="DEFAULT_VEHTYPE" speedFactor="0.97" vaporized=""/>
    <tripinfo id="81" depart="81.00" departLane="-14026251#0_0" departPos="5.10" departSpeed="0.00" departDelay="0.00" arrival="227.00" arrivalLane="682553780_0" arrivalPos="116.65" arrivalSpeed="22.49" duration="146.00" routeLength="1372.69" waitingTime="10.00" waitingCount="1" stopTime="0.00" timeLoss="36.29" rerouteNo="1" devices="tripinfo_81 routing_81" vType="DEFAULT_VEHTYPE" speedFactor="0.97" vaporized=""/>
    <tripinfo id="157" depart="157.00" departLane="14026504#9_0" departPos="5.10" departSpeed="0.00" departDelay="0.00" arrival="227.00" arrivalLane="682551446#1_0" arrivalPos="50.31" arrivalSpeed="10.42" duration="70.00" routeLength="626.28" waitingTime="0.00" waitingCount="0" stopTime="0.00" timeLoss="10.63" rerouteNo="1" devices="tripinfo_157 routing_157" vType="DEFAULT_VEHTYPE" speedFactor="0.96" vaporized=""/>
    <tripinfo id="137" depart="137.00" departLane="-14025222#6_0" departPos="0.20" departSpeed="0.00" departDelay="0.00" arrival="228.00" arrivalLane="-14025222#10_0" arrivalPos="54.87" arrivalSpeed="10.02" duration="91.00" routeLength="832.37" waitingTime="0.00" waitingCount="0" stopTime="0.00" timeLoss="13.69" rerouteNo="1" devices="tripinfo_137 routing_137" vType="DEFAULT_VEHTYPE" speedFactor="0.99" vaporized=""/>
    <tripinfo id="58" depart="58.00" departLane="-14026530_0" departPos="5.10" departSpeed="0.00" departDelay="0.00" arrival="233.00" arrivalLane="14025399_0" arrivalPos="44.80" arrivalSpeed="11.79" duration="175.00" routeLength="1683.62" waitingTime="0.00" waitingCount="0" stopTime="0.00" timeLoss="24.77" rerouteNo="1" devices="tripinfo_58 routing_58" vType="DEFAULT_VEHTYPE" speedFactor="0.87" vaporized=""/>
    <tripinfo id="159" depart="159.00" departLane="-14025399_0" departPos="5.10" departSpeed="0.00" departDelay="0.00" arrival="233.00" arrivalLane="683043814#4_0" arrivalPos="109.40" arrivalSpeed="8.83" duration="74.00" routeLength="610.42" waitingTime="13.00" waitingCount="1" stopTime="0.00" timeLoss="30.66" rerouteNo="1" devices="tripinfo_159 routing_159" vType="DEFAULT_VEHTYPE" speedFactor="1.03" vaporized=""/>
    <tripinfo id="93" depart="93.00" departLane="682551442#14_0" departPos="5.10" departSpeed="0.00" departDelay="0.00" arrival="234.00" arrivalLane="-14026336#1_0" arrivalPos="40.61" arrivalSpeed="11.44" duration="141.00" routeLength="1334.69" waitingTime="27.00" waitingCount="1" stopTime="0.00" timeLoss="55.97" rerouteNo="1" devices="tripinfo_93 routing_93" vType="DEFAULT_VEHTYPE" speedFactor="1.09" vaporized=""/>
    <tripinfo id="55" depart="55.00" departLane="682551442#9_0" departPos="0.20" departSpeed="0.00" departDelay="0.00" arrival="235.00" arrivalLane="-14026336#8_0" arrivalPos="47.75" arrivalSpeed="8.58" duration="180.00" routeLength="1584.88" waitingTime="0.00" waitingCount="0" stopTime="0.00" timeLoss="19.38" rerouteNo="1" devices="tripinfo_55 routing_55" vType="DEFAULT_VEHTYPE" speedFactor="0.83" vaporized=""/>
    <tripinfo id="184" depart="184.00" departLane="-14019569#0_0" departPos="5.10" departSpeed="0.00" departDelay="0.00" arrival="235.00" arrivalLane="683043814#2_0" arrivalPos="117.41" arrivalSpeed="13.26" duration="51.00" routeLength="477.32" waitingTime="0.00" waitingCount="0" stopTime="0.00" timeLoss="14.46" rerouteNo="1" devices="tripinfo_184 routing_184" vType="DEFAULT_VEHTYPE" speedFactor="1.02" vaporized=""/>
    <tripinfo id="68" depart="68.00" departLane="-14024694#1_0" departPos="5.10" departSpeed="0.00" departDelay="0.00" arrival="244.00" arrivalLane="14026436_0" arrivalPos="268.18" arrivalSpeed="13.68" duration="176.00" routeLength="2582.55" waitingTime="0.00" waitingCount="0" stopTime="0.00" timeLoss="24.80" rerouteNo="1" devices="tripinfo_68 routing_68" vType="DEFAULT_VEHTYPE" speedFactor="1.01" vaporized=""/>
    <tripinfo id="183" depart="183.00" departLane="-14026336#0_0" departPos="5.10" departSpeed="0.00" departDelay="0.00" arrival="245.00" arrivalLane="14026100#3_0" arrivalPos="34.02" arrivalSpeed="13.21" duration="62.00" routeLength="666.65" waitingTime="0.00" waitingCount="0" stopTime="0.00" timeLoss="10.43" rerouteNo="1" devices="tripinfo_183 routing_183" vType="DEFAULT_VEHTYPE" speedFactor="1.02" vaporized=""/>
    <tripinfo id="59" depart="59.00" departLane="14025222#11_0" departPos="0.20" departSpeed="0.00" departDelay="0.00" arrival="247.00" arrivalLane="-14025701#0_0" arrivalPos="43.62" arrivalSpeed="11.70" duration="188.00" routeLength="1983.59" waitingTime="0.00" waitingCount="0" stopTime="0.00" timeLoss="29.28" rerouteNo="1" devices="tripinfo_59 routing_59" vType="DEFAULT_VEHTYPE" speedFactor="0.92" vaporized=""/>
    <tripinfo id="165" depart="165.00" departLane="14027172#2_0" departPos="5.10" departSpeed="0.00" departDelay="0.00" arrival="247.00" arrivalLane="-14026351_0" arrivalPos="13.35" arrivalSpeed="14.84" duration="82.00" routeLength="826.59" waitingTime="0.00" waitingCount="0" stopTime="0.00" timeLoss="18.06" rerouteNo="1" devices="tripinfo_165 routing_165" vType="DEFAULT_VEHTYPE" speedFactor="1.09" vaporized=""/>
    <tripinfo id="139" depart="139.00" departLane="-14026336#9_0" departPos="5.10" departSpeed="0.00" departDelay="0.00" arrival="249.00" arrivalLane="14025222#11_0" arrivalPos="0.20" arrivalSpeed="9.69" duration="110.00" routeLength="949.45" waitingTime="0.00" waitingCount="0" stopTime="0.00" timeLoss="11.91" rerouteNo="1" devices="tripinfo_139 routing_139" vType="DEFAULT_VEHTYPE" speedFactor="0.88" vaporized=""/>
    <tripinfo id="160" depart="160.00" departLane="682551442#3_0" departPos="5.10" departSpeed="0.00" departDelay="0.00" arrival="250.00" arrivalLane="683050817_0" arrivalPos="46.09" arrivalSpeed="13.23" duration="90.00" routeLength="829.22" waitingTime="4.00" waitingCount="1" stopTime="0.00" timeLoss="20.26" rerouteNo="1" devices="tripinfo_160 routing_160" vType="DEFAULT_VEHTYPE" speedFactor="0.98" vaporized=""/>
    <tripinfo id="145" depart="145.00" departLane="-14019569#1_0" departPos="5.10" departSpeed="0.00" departDelay="0.00" arrival="251.00" arrivalLane="14026504#4_0" arrivalPos="40.61" arrivalSpeed="13.97" duration="106.00" routeLength="593.06" waitingTime="44.00" waitingCount="1" stopTime="0.00" timeLoss="61.13" rerouteNo="1" devices="tripinfo_145 routing_145" vType="DEFAULT_VEHTYPE" speedFactor="1.04" vaporized=""/>
    <tripinfo id="173" depart="173.00" departLane="683047946#3_0" departPos="5.10" departSpeed="0.00" departDelay="0.00" arrival="259.00" arrivalLane="-14026504#4_0" arrivalPos="40.61" arrivalSpeed="15.51" duration="86.00" routeLength="648.66" waitingTime="18.00" waitingCount="1" stopTime="0.00" timeLoss="42.88" rerouteNo="1" devices="tripinfo_173 routing_173" vType="DEFAULT_VEHTYPE" speedFactor="1.15" vaporized=""/>
    <tripinfo id="171" depart="171.00" departLane="-14019571#2_0" departPos="5.10" departSpeed="0.00" departDelay="0.00" arrival="262.00" arrivalLane="-14026096#0_0" arrivalPos="43.13" arrivalSpeed="12.85" duration="91.00" routeLength="913.97" waitingTime="4.00" waitingCount="1" stopTime="0.00" timeLoss="20.87" rerouteNo="1" devices="tripinfo_171 routing_171" vType="DEFAULT_VEHTYPE" speedFactor="0.97" vaporized=""/>
    <tripinfo id="162" depart="163.00" departLane="-14019571#3_0" departPos="5.10" departSpeed="0.00" departDelay="1.00" arrival="266.00" arrivalLane="14026326#2_0" arrivalPos="80.00" arrivalSpeed="13.91" duration="103.00" routeLength="1076.92" waitingTime="1.00" waitingCount="1" stopTime="0.00" timeLoss="26.44" rerouteNo="1" devices="tripinfo_162 routing_162" vType="DEFAULT_VEHTYPE" speedFactor="1.01" vaporized=""/>