<?xml version="1.0" encoding="UTF-8"?>

<!-- generated on 2025-02-14 16:33:52 by Eclipse SUMO GUI Version 1.22.0
<sumoConfiguration xmlns:xsi="http://www.w3.org/2001/XMLSchema-instance" xsi:noNamespaceSchemaLocation="http://sumo.dlr.de/xsd/sumoConfiguration.xsd">

    <input>
        <net-file value="C:\Users\pukar\OneDrive\Desktop\Sumo Repos\CS690MiniProj1\CS690-MiniProj1\lyons\low_traffic_flow\lyons.net.xml"/>
        <route-files value="C:\Users\pukar\OneDrive\Desktop\Sumo Repos\CS690MiniProj1\CS690-MiniProj1\lyons\low_traffic_flow\sorted_lyons_Night.rou.xml"/>
        <additional-files value="C:\Users\pukar\OneDrive\Desktop\Sumo Repos\CS690MiniProj1\CS690-MiniProj1\lyons\low_traffic_flow\detectors.add.xml"/>
    </input>

    <output>
        <tripinfo-output value="C:\Users\pukar\OneDrive\Desktop\Sumo Repos\CS690MiniProj1\CS690-MiniProj1\lyons\low_traffic_flow\tripinfo.xml"/>
    </output>

</sumoConfiguration>
-->

<tripinfos xmlns:xsi="http://www.w3.org/2001/XMLSchema-instance" xsi:noNamespaceSchemaLocation="http://sumo.dlr.de/xsd/tripinfo_file.xsd">
    <tripinfo id="35" depart="35.00" departLane="-14026096#5_0" departPos="0.20" departSpeed="0.00" departDelay="0.00" arrival="84.00" arrivalLane="683044783#4_0" arrivalPos="35.02" arrivalSpeed="7.81" duration="49.00" routeLength="467.00" waitingTime="0.00" waitingCount="0" stopTime="0.00" timeLoss="6.30" rerouteNo="1" devices="tripinfo_35 routing_35" vType="DEFAULT_VEHTYPE" speedFactor="0.94" vaporized=""/>
    <tripinfo id="7" depart="7.00" departLane="14025708#1_0" departPos="5.10" departSpeed="0.00" departDelay="0.00" arrival="111.00" arrivalLane="14024684#7_0" arrivalPos="27.87" arrivalSpeed="11.01" duration="104.00" routeLength="1205.69" waitingTime="0.00" waitingCount="0" stopTime="0.00" timeLoss="16.67" rerouteNo="1" devices="tripinfo_7 routing_7" vType="DEFAULT_VEHTYPE" speedFactor="1.01" vaporized=""/>
    <tripinfo id="14" depart="14.00" departLane="625743596_0" departPos="5.10" departSpeed="0.00" departDelay="0.00" arrival="113.00" arrivalLane="14025222#10_0" arrivalPos="54.87" arrivalSpeed="8.12" duration="99.00" routeLength="1050.24" waitingTime="0.00" waitingCount="0" stopTime="0.00" timeLoss="16.75" rerouteNo="1" devices="tripinfo_14 routing_14" vType="DEFAULT_VEHTYPE" speedFactor="0.83" vaporized=""/>
    <tripinfo id="12" depart="12.00" departLane="683047943#1_0" departPos="5.10" departSpeed="0.00" departDelay="0.00" arrival="114.00" arrivalLane="-14027562#4_0" arrivalPos="42.52" arrivalSpeed="14.85" duration="102.00" routeLength="1008.18" waitingTime="0.00" waitingCount="0" stopTime="0.00" timeLoss="14.34" rerouteNo="1" devices="tripinfo_12 routing_12" vType="DEFAULT_VEHTYPE" speedFactor="1.03" vaporized=""/>
    <tripinfo id="6" depart="6.00" departLane="-14019622#0_0" departPos="5.10" departSpeed="0.00" departDelay="0.00" arrival="116.00" arrivalLane="-14026096#3_0" arrivalPos="41.07" arrivalSpeed="12.05" duration="110.00" routeLength="1111.76" waitingTime="0.00" waitingCount="0" stopTime="0.00" timeLoss="17.84" rerouteNo="1" devices="tripinfo_6 routing_6" vType="DEFAULT_VEHTYPE" speedFactor="0.94" vaporized=""/>
    <tripinfo id="24" depart="24.00" departLane="14025398#2_0" departPos="5.10" departSpeed="0.00" departDelay="0.00" arrival="117.00" arrivalLane="-682551442#4_0" arrivalPos="77.74" arrivalSpeed="9.25" duration="93.00" routeLength="801.02" waitingTime="0.00" waitingCount="0" stopTime="0.00" timeLoss="11.84" rerouteNo="1" devices="tripinfo_24 routing_24" vType="DEFAULT_VEHTYPE" speedFactor="0.89" vaporized=""/>
    <tripinfo id="88" depart="88.00" departLane="-14025159#0_0" departPos="5.10" departSpeed="0.00" departDelay="0.00" arrival="124.00" arrivalLane="-683044783#6_0" arrivalPos="110.32" arrivalSpeed="7.46" duration="36.00" routeLength="287.17" waitingTime="0.00" waitingCount="0" stopTime="0.00" timeLoss="5.53" rerouteNo="1" devices="tripinfo_88 routing_88" vType="DEFAULT_VEHTYPE" speedFactor="0.97" vaporized=""/>
    <tripinfo id="57" depart="57.00" departLane="682553785_0" departPos="1.62" departSpeed="0.00" departDelay="0.00" arrival="155.00" arrivalLane="682551442#6_0" arrivalPos="109.74" arrivalSpeed="10.93" duration="98.00" routeLength="1119.34" waitingTime="0.00" waitingCount="0" stopTime="0.00" timeLoss="15.16" rerouteNo="1" devices="tripinfo_57 routing_57" vType="DEFAULT_VEHTYPE" speedFactor="1.05" vaporized=""/>
    <tripinfo id="119" depart="119.00" departLane="14025159#6_0" departPos="5.10" departSpeed="0.00" departDelay="0.00" arrival="157.00" arrivalLane="14025222#7_0" arrivalPos="21.85" arrivalSpeed="12.23" duration="38.00" routeLength="388.59" waitingTime="0.00" waitingCount="0" stopTime="0.00" timeLoss="6.92" rerouteNo="1" devices="tripinfo_119 routing_119" vType="DEFAULT_VEHTYPE" speedFactor="1.17" vaporized=""/>
    <tripinfo id="72" depart="72.00" departLane="-683043814#5_0" departPos="5.10" departSpeed="0.00" departDelay="0.00" arrival="158.00" arrivalLane="-14026100#0_0" arrivalPos="134.86" arrivalSpeed="13.00" duration="86.00" routeLength="834.96" waitingTime="2.00" waitingCount="1" stopTime="0.00" timeLoss="15.62" rerouteNo="1" devices="tripinfo_72 routing_72" vType="DEFAULT_VEHTYPE" speedFactor="0.94" vaporized=""/>
    <tripinfo id="56" depart="56.00" departLane="14019569#6_0" departPos="5.10" departSpeed="0.00" departDelay="0.00" arrival="160.00" arrivalLane="-14026007#1_0" arrivalPos="79.41" arrivalSpeed="14.05" duration="104.00" routeLength="1002.19" waitingTime="1.00" waitingCount="1" stopTime="0.00" timeLoss="25.04" rerouteNo="1" devices="tripinfo_56 routing_56" vType="DEFAULT_VEHTYPE" speedFactor="1.03" vaporized=""/>
    <tripinfo id="95" depart="95.00" departLane="-683043814#4_0" departPos="5.10" departSpeed="0.00" departDelay="0.00" arrival="166.00" arrivalLane="-14026504#4_0" arrivalPos="40.61" arrivalSpeed="12.10" duration="71.00" routeLength="647.20" waitingTime="0.00" waitingCount="0" stopTime="0.00" timeLoss="15.27" rerouteNo="1" devices="tripinfo_95 routing_95" vType="DEFAULT_VEHTYPE" speedFactor="0.87" vaporized=""/>
    <tripinfo id="109" depart="109.00" departLane="-14025399_0" departPos="5.10" departSpeed="0.00" departDelay="0.00" arrival="171.00" arrivalLane="-14026676#2_0" arrivalPos="77.60" arrivalSpeed="15.76" duration="62.00" routeLength="591.05" waitingTime="0.00" waitingCount="0" stopTime="0.00" timeLoss="12.59" rerouteNo="1" devices="tripinfo_109 routing_109" vType="DEFAULT_VEHTYPE" speedFactor="1.18" vaporized=""/>
    <tripinfo id="39" depart="39.00" departLane="-14026336#5_0" departPos="5.10" departSpeed="0.00" departDelay="0.00" arrival="177.00" arrivalLane="-14026326#2_0" arrivalPos="79.47" arrivalSpeed="11.83" duration="138.00" routeLength="1421.04" waitingTime="0.00" waitingCount="0" stopTime="0.00" timeLoss="16.84" rerouteNo="1" devices="tripinfo_39 routing_39" vType="DEFAULT_VEHTYPE" speedFactor="0.86" vaporized=""/>
    <tripinfo id="60" depart="60.00" departLane="14026466_0" departPos="5.10" departSpeed="0.00" departDelay="0.00" arrival="182.00" arrivalLane="14024684#4_0" arrivalPos="41.72" arrivalSpeed="10.48" duration="122.00" routeLength="1272.82" waitingTime="0.00" waitingCount="0" stopTime="0.00" timeLoss="23.46" rerouteNo="1" devices="tripinfo_60 routing_60" vType="DEFAULT_VEHTYPE" speedFactor="0.99" vaporized=""/>
    <tripinfo id="2" depart="2.00" departLane="14026326#2_0" departPos="5.10" departSpeed="0.00" departDelay="0.00" arrival="185.00" arrivalLane="14026019#1_0" arrivalPos="25.89" arrivalSpeed="14.53" duration="183.00" routeLength="2044.93" waitingTime="7.00" waitingCount="2" stopTime="0.00" timeLoss="43.91" rerouteNo="1" devices="tripinfo_2 routing_2" vType="DEFAULT_VEHTYPE" speedFactor="1.06" vaporized=""/>
    <tripinfo id="105" depart="105.00" departLane="-14026336#5_0" departPos="5.10" departSpeed="0.00" departDelay="0.00" arrival="186.00" arrivalLane="14026676#0_0" arrivalPos="44.52" arrivalSpeed="14.01" duration="81.00" routeLength="811.40" waitingTime="4.00" waitingCount="1" stopTime="0.00" timeLoss="23.17" rerouteNo="1" devices="tripinfo_105 routing_105" vType="DEFAULT_VEHTYPE" speedFactor="1.13" vaporized=""/>
    <tripinfo id="112" depart="112.00" departLane="-14024684#4_0" departPos="5.10" departSpeed="0.00" departDelay="0.00" arrival="186.00" arrivalLane="14025159#2_0" arrivalPos="43.71" arrivalSpeed="11.82" duration="74.00" routeLength="785.38" waitingTime="0.00" waitingCount="0" stopTime="0.00" timeLoss="19.76" rerouteNo="1" devices="tripinfo_112 routing_112" vType="DEFAULT_VEHTYPE" speedFactor="1.15" vaporized=""/>
    <tripinfo id="65" depart="65.00" departLane="-14026768#1_0" departPos="5.10" departSpeed="0.00" departDelay="0.00" arrival="189.00" arrivalLane="-14024684#5_0" arrivalPos="40.28" arrivalSpeed="9.53" duration="124.00" routeLength="1119.54" waitingTime="0.00" waitingCount="0" stopTime="0.00" timeLoss="17.84" rerouteNo="1" devices="tripinfo_65 routing_65" vType="DEFAULT_VEHTYPE" speedFactor="0.88" vaporized=""/>
    <tripinfo id="104" depart="104.00" departLane="-682551442#7_0" departPos="5.10" departSpeed="0.00" departDelay="0.00" arrival="190.00" arrivalLane="683050822#3_0" arrivalPos="0.20" arrivalSpeed="13.84" duration="86.00" routeLength="842.38" waitingTime="0.00" waitingCount="0" stopTime="0.00" timeLoss="11.91" rerouteNo="1" devices="tripinfo_104 routing_104" vType="DEFAULT_VEHTYPE" speedFactor="0.95" vaporized=""/>
    <tripinfo id="55" depart="55.00" departLane="682551442#9_0" departPos="0.20" departSpeed="0.00" departDelay="0.00" arrival="194.00" arrivalLane="-14026336#8_0" arrivalPos="47.75" arrivalSpeed="10.97" duration="139.00" routeLength="1584.88" waitingTime="0.00" waitingCount="0" stopTime="0.00" timeLoss="17.29" rerouteNo="1" devices="tripinfo_55 routing_55" vType="DEFAULT_VEHTYPE" speedFactor="1.09" vaporized=""/>
    <tripinfo id="64" depart="64.00" departLane="682551445#1_0" departPos="5.10" departSpeed="0.00" departDelay="0.00" arrival="194.00" arrivalLane="14027562#5_0" arrivalPos="144.44" arrivalSpeed="22.38" duration="130.00" routeLength="1275.27" waitingTime="0.00" waitingCount="0" stopTime="0.00" timeLoss="16.23" rerouteNo="1" devices="tripinfo_64 routing_64" vType="DEFAULT_VEHTYPE" speedFactor="0.93" vaporized=""/>
    <tripinfo id="102" depart="102.00" departLane="-683270320_0" departPos="5.10" departSpeed="0.00" departDelay="0.00" arrival="194.00" arrivalLane="-14026100#1_0" arrivalPos="39.94" arrivalSpeed="11.99" duration="92.00" routeLength="1198.95" waitingTime="0.00" waitingCount="0" stopTime="0.00" timeLoss="11.87" rerouteNo="1" devices="tripinfo_102 routing_102" vType="DEFAULT_VEHTYPE" speedFactor="0.92" vaporized=""/>
    <tripinfo id="89" depart="91.00" departLane="-683043814#5_0" departPos="5.10" departSpeed="0.00" departDelay="2.00" arrival="197.00" arrivalLane="-683050822#2_0" arrivalPos="101.37" arrivalSpeed="13.16" duration="106.00" routeLength="981.25" waitingTime="0.00" waitingCount="0" stopTime="0.00" timeLoss="20.46" rerouteNo="1" devices="tripinfo_89 routing_89" vType="DEFAULT_VEHTYPE" speedFactor="0.89" vaporized=""/>
    <tripinfo id="77" depart="77.00" departLane="-14025222#11_0" departPos="0.20" departSpeed="0.00" departDelay="0.00" arrival="200.00" arrivalLane="-14026251#2_0" arrivalPos="41.28" arrivalSpeed="14.85" duration="123.00" routeLength="1380.84" waitingTime="0.00" waitingCount="0" stopTime="0.00" timeLoss="26.08" rerouteNo="1" devices="tripinfo_77 routing_77" vType="DEFAULT_VEHTYPE" speedFactor="1.16" vaporized=""/>
    <tripinfo id="145" depart="145.00" departLane="-14019569#1_0" departPos="5.10" departSpeed="0.00" departDelay="0.00" arrival="211.00" arrivalLane="14026504#4_0" arrivalPos="40.61" arrivalSpeed="14.08" duration="66.00" routeLength="593.06" waitingTime="7.00" waitingCount="1" stopTime="0.00" timeLoss="25.48" rerouteNo="1" devices="tripinfo_145 routing_145" vType="DEFAULT_VEHTYPE" speedFactor="1.10" vaporized=""/>
    <tripinfo id="58" depart="58.00" departLane="-14026530_0" departPos="5.10" departSpeed="0.00" departDelay="0.00" arrival="212.00" arrivalLane="14025399_0" arrivalPos="44.80" arrivalSpeed="15.57" duration="154.00" routeLength="1683.62" waitingTime="4.00" waitingCount="1" stopTime="0.00" timeLoss="36.64" rerouteNo="1" devices="tripinfo_58 routing_58" vType="DEFAULT_VEHTYPE" speedFactor="1.12" vaporized=""/>
    <tripinfo id="143" depart="143.00" departLane="625743595_0" departPos="5.10" departSpeed="0.00" departDelay="0.00" arrival="216.00" arrivalLane="-14025159#0_0" arrivalPos="44.12" arrivalSpeed="12.63" duration="73.00" routeLength="862.90" waitingTime="0.00" waitingCount="0" stopTime="0.00" timeLoss="16.07" rerouteNo="1" devices="tripinfo_143 routing_143" vType="DEFAULT_VEHTYPE" speedFactor="1.18" vaporized=""/>
    <tripinfo id="125" depart="125.00" departLane="-14026937#2_0" departPos="5.10" departSpeed="0.00" departDelay="0.00" arrival="217.00" arrivalLane="14026336#7_0" arrivalPos="46.56" arrivalSpeed="10.35" duration="92.00" routeLength="866.55" waitingTime="0.00" waitingCount="0" stopTime="0.00" timeLoss="15.04" rerouteNo="1" devices="tripinfo_125 routing_125" vType="DEFAULT_VEHTYPE" speedFactor="0.99" vaporized=""/>
    <tripinfo id="11" depart="11.00" departLane="-14027562#2_0" departPos="3.32" departSpeed="0.00" departDelay="0.00" arrival="218.00" arrivalLane="-14025708#0_0" arrivalPos="0.20" arrivalSpeed="16.50" duration="207.00" routeLength="2595.73" waitingTime="1.00" waitingCount="1" stopTime="0.00" timeLoss="44.66" rerouteNo="1" devices="tripinfo_11 routing_11" vType="DEFAULT_VEHTYPE" speedFactor="1.08" vaporized=""/>
    <tripinfo id="137" depart="137.00" departLane="-14025222#6_0" departPos="0.20" departSpeed="0.00" departDelay="0.00" arrival="228.00" arrivalLane="-14025222#10_0" arrivalPos="54.87" arrivalSpeed="9.97" duration="91.00" routeLength="832.37" waitingTime="0.00" waitingCount="0" stopTime="0.00" timeLoss="11.90" rerouteNo="1" devices="tripinfo_137 routing_137" vType="DEFAULT_VEHTYPE" speedFactor="0.97" vaporized=""/>
    <tripinfo id="148" depart="148.00" departLane="-683044783#0_0" departPos="5.10" departSpeed="0.00" departDelay="0.00" arrival="232.00" arrivalLane="-14019569#5_0" arrivalPos="41.67" arrivalSpeed="11.85" duration="84.00" routeLength="763.75" waitingTime="0.00" waitingCount="0" stopTime="0.00" timeLoss="16.03" rerouteNo="1" devices="tripinfo_148 routing_148" vType="DEFAULT_VEHTYPE" speedFactor="0.90" vaporized=""/>
    <tripinfo id="93" depart="94.00" departLane="682551442#14_0" departPos="5.10" departSpeed="0.00" departDelay="1.00" arrival="233.00" arrivalLane="-14026336#1_0" arrivalPos="40.61" arrivalSpeed="8.64" duration="139.00" routeLength="1334.69" waitingTime="4.00" waitingCount="1" stopTime="0.00" timeLoss="27.23" rerouteNo="1" devices="tripinfo_93 routing_93" vType="DEFAULT_VEHTYPE" speedFactor="0.83" vaporized=""/>
    <tripinfo id="84" depart="84.00" departLane="-14026096#7_0" departPos="5.10" departSpeed="0.00" departDelay="0.00" arrival="264.00" arrivalLane="-14025222#7_0" arrivalPos="21.85" arrivalSpeed="10.39" duration="180.00" routeLength="1908.73" waitingTime="1.00" waitingCount="1" stopTime="0.00" timeLoss="31.23" rerouteNo="1" devices="tripinfo_84 routing_84" vType="DEFAULT_VEHTYPE" speedFactor="1.01" vaporized=""/>
    <tripinfo id="179" depart="179.00" departLane="-14025159#6_0" departPos="5.10" departSpeed="0.00" departDelay="0.00" arrival="272.00" arrivalLane="-683047939#1_0" arrivalPos="44.36" arrivalSpeed="12.16" duration="93.00" routeLength="900.19" waitingTime="0.00" waitingCount="0" stopTime="0.00" timeLoss="13.60" rerouteNo="1" devices="tripinfo_179 routing_179" vType="DEFAULT_VEHTYPE" speedFactor="0.96" vaporized=""/>
    <tripinfo id="206" depart="206.00" departLane="14026010_0" departPos="5.10" departSpeed="0.00" departDelay="0.00" arrival="275.00" arrivalLane="-14026251#2_0" arrivalPos="41.28" arrivalSpeed="13.28" duration="69.00" routeLength="638.97" waitingTime="1.00" waitingCount="1" stopTime="0.00" timeLoss="21.92" rerouteNo="1" devices="tripinfo_206 routing_206" vType="DEFAULT_VEHTYPE" speedFactor="1.04" vaporized=""/>
    <tripinfo id="136" depart="136.00" departLane="14025944#1_0" departPos="5.10" departSpeed="0.00" departDelay="0.00" arrival="282.00" arrivalLane="683044783#2_0" arrivalPos="117.27" arrivalSpeed="8.03" duration="146.00" routeLength="1400.55" waitingTime="3.00" waitingCount="1" stopTime="0.00" timeLoss="41.36" rerouteNo="1" devices="tripinfo_136 routing_136" vType="DEFAULT_VEHTYPE" speedFactor="1.02" vaporized=""/>
    <tripinfo id="108" depart="108.00" departLane="14024694#0_0" departPos="5.10" departSpeed="0.00" departDelay="0.00" arrival="285.00" arrivalLane="14026251#3_0" arrivalPos="41.59" arrivalSpeed="12.37" duration="177.00" routeLength="2588.53" waitingTime="0.00" waitingCount="0" stopTime="0.00" timeLoss="22.75" rerouteNo="1" devices="tripinfo_108 routing_108" vType="DEFAULT_VEHTYPE" speedFactor="0.93" vaporized=""/>
    <tripinfo id="158" depart="158.00" departLane="-683029995_0" departPos="5.10" departSpeed="0.00" departDelay="0.00" arrival="286.00" arrivalLane="14025222#8_0" arrivalPos="126.10" arrivalSpeed="11.26" duration="128.00" routeLength="1367.87" waitingTime="0.00" waitingCount="0" stopTime="0.00" timeLoss="18.79" rerouteNo="1" devices="tripinfo_158 routing_158" vType="DEFAULT_VEHTYPE" speedFactor="1.03" vaporized=""/>
    <tripinfo id="255" depart="255.00" departLane="-14026096#6_0" departPos="5.10" departSpeed="0.00" departDelay="0.00" arrival="289.00" arrivalLane="-14027172#6_0" arrivalPos="39.49" arrivalSpeed="9.55" duration="34.00" routeLength="311.23" waitingTime="0.00" waitingCount="0" stopTime="0.00" timeLoss="6.51" rerouteNo="1" devices="tripinfo_255 routing_255" vType="DEFAULT_VEHTYPE" speedFactor="0.90" vaporized=""/>
    <tripinfo id="214" depart="214.00" departLane="14026336#6_0" departPos="5.10" departSpeed="0.00" departDelay="0.00" arrival="290.00" arrivalLane="14026504#3_0" arrivalPos="40.92" arrivalSpeed="13.71" duration="76.00" routeLength="642.97" waitingTime="1.00" waitingCount="1" stopTime="0.00" timeLoss="20.01" rerouteNo="1" devices="tripinfo_214 routing_214" vType="DEFAULT_VEHTYPE" speedFactor="1.00" vaporized=""/>
    <tripinfo id="75" depart="75.00" departLane="683270315_0" departPos="5.10" departSpeed="0.00" departDelay="0.00" arrival="291.00" arrivalLane="14025708#1_0" arrivalPos="135.16" arrivalSpeed="13.48" duration="216.00" routeLength="2496.68" waitingTime="5.00" waitingCount="1" stopTime="0.00" timeLoss="38.92" rerouteNo="1" devices="tripinfo_75 routing_75" vType="DEFAULT_VEHTYPE" speedFactor="0.94" vaporized=""/>
    <tripinfo id="205" depart="205.00" departLane="14027172#6_0" departPos="5.10" departSpeed="0.00" departDelay="0.00" arrival="292.00" arrivalLane="14026336#6_0" arrivalPos="47.84" arrivalSpeed="11.36" duration="87.00" routeLength="748.34" waitingTime="6.00" waitingCount="1" stopTime="0.00" timeLoss="24.74" rerouteNo="1" devices="tripinfo_205 routing_205" vType="DEFAULT_VEHTYPE" speedFactor="1.09" vaporized=""/>
    <tripinfo id="232" depart="232.00" departLane="14024684#10_0" departPos="5.10" departSpeed="0.00" departDelay="0.00" arrival="301.00" arrivalLane="-14025386#1_0" arrivalPos="46.86" arrivalSpeed="13.32" duration="69.00" routeLength="649.89" waitingTime="0.00" waitingCount="0" stopTime="0.00" timeLoss="13.25" rerouteNo="1" devices="tripinfo_232 routing_232" vType="DEFAULT_VEHTYPE" speedFactor="1.02" vaporized=""/>
    <tripinfo id="231" depart="231.00" departLane="-14026336#9_0" departPos="5.10" departSpeed="0.00" departDelay="0.00" arrival="312.00" arrivalLane="-14027172#3_0" arrivalPos="73.94" arrivalSpeed="11.96" duration="81.00" routeLength="852.67" waitingTime="0.00" waitingCount="0" stopTime="0.00" timeLoss="14.47" rerouteNo="1" devices="tripinfo_231 routing_231" vType="DEFAULT_VEHTYPE" speedFactor="1.17" vaporized=""/>
    <tripinfo id="215" depart="215.00" departLane="-14025159#6_0" departPos="5.10" departSpeed="0.00" departDelay="0.00" arrival="315.00" arrivalLane="-683044783#3_0" arrivalPos="77.55" arrivalSpeed="7.64" duration="100.00" routeLength="823.10" waitingTime="5.00" waitingCount="1" stopTime="0.00" timeLoss="24.45" rerouteNo="1" devices="tripinfo_215 routing_215" vType="DEFAULT_VEHTYPE" speedFactor="0.90" vaporized=""/>
    <tripinfo id="209" depart="209.00" departLane="682551442#0_0" departPos="5.10" departSpeed="0.00" departDelay="0.00" arrival="332.00" arrivalLane="-14024696#0_0" arrivalPos="48.36" arrivalSpeed="20.05" duration="123.00" routeLength="1329.71" waitingTime="9.00" waitingCount="1" stopTime="0.00" timeLoss="30.55" rerouteNo="1" devices="tripinfo_209 routing_209" vType="DEFAULT_VEHTYPE" speedFactor="1.04" vaporized=""/>
    <tripinfo id="216" depart="216.00" departLane="-14025894#3_0" departPos="5.10" departSpeed="0.00" departDelay="0.00" arrival="333.00" arrivalLane="683047943#1_0" arrivalPos="42.28" arrivalSpeed="9.52" duration="117.00" routeLength="1131.03" waitingTime="0.00" waitingCount="0" stopTime="0.00" timeLoss="16.99" rerouteNo="1" devices="tripinfo_216 routing_216" vType="DEFAULT_VEHTYPE" speedFactor="0.88" vaporized=""/>
    <tripinfo id="228" depart="228.00" departLane="14026504#1_0" departPos="5.10" departSpeed="0.00" departDelay="0.00" arrival="338.00" arrivalLane="14021132#1_0" arrivalPos="145.48" arrivalSpeed="18.17" duration="110.00" routeLength="1052.72" waitingTime="5.00" waitingCount="1" stopTime="0.00" timeLoss="19.73" rerouteNo="1" devices="tripinfo_228 routing_228" vType="DEFAULT_VEHTYPE" speedFactor="0.85" vaporized=""/>
    <tripinfo id="212" depart="212.00" departLane="14019569#3_0" departPos="5.10" departSpeed="0.00" departDelay="0.00" arrival="343.00" arrivalLane="-14026326#1_0" arrivalPos="93.19" arrivalSpeed="14.35" duration="131.00" routeLength="1395.26" waitingTime="4.00" waitingCount="2" stopTime="0.00" timeLoss="35.93" rerouteNo="1" devices="tripinfo_212 routing_212" vType="DEFAULT_VEHTYPE" speedFactor="1.09" vaporized=""/>
    <tripinfo id="219" depart="219.00" departLane="-683047946#2_0" departPos="5.10" departSpeed="0.00" departDelay="0.00" arrival="347.00" arrivalLane="14026937#2_0" arrivalPos="92.11" arrivalSpeed="11.00" duration="128.00" routeLength="1220.15" waitingTime="0.00" waitingCount="0" stopTime="0.00" timeLoss="21.46" rerouteNo="1" devices="tripinfo_219 routing_219" vType="DEFAULT_VEHTYPE" speedFactor="0.85" vaporized=""/>
    <tripinfo id="260" depart="260.00" departLane="683270327_0" departPos="5.10" departSpeed="0.00" departDelay="0.00" arrival="354.00" arrivalLane="-682551442#1_0" arrivalPos="76.92" arrivalSpeed="12.67" duration="94.00" routeLength="1001.63" waitingTime="0.00" waitingCount="0" stopTime="0.00" timeLoss="17.69" rerouteNo="1" devices="tripinfo_260 routing_260" vType="DEFAULT_VEHTYPE" speedFactor="1.14" vaporized=""/>
    <tripinfo id="265" depart="265.00" departLane="-14025222#2_0" departPos="5.10" departSpeed="0.00" departDelay="0.00" arrival="359.00" arrivalLane="14026007#1_0" arrivalPos="79.41" arrivalSpeed="14.76" duration="94.00" routeLength="1049.33" waitingTime="0.00" waitingCount="0" stopTime="0.00" timeLoss="19.60" rerouteNo="1" devices="tripinfo_265 routing_265" vType="DEFAULT_VEHTYPE" speedFactor="1.08" vaporized=""/>
    <tripinfo id="287" depart="287.00" departLane="-14026336#8_0" departPos="5.10" departSpeed="0.00" departDelay="0.00" arrival="359.00" arrivalLane="14027172#1_0" arrivalPos="47.75" arrivalSpeed="10.35" duration="72.00" routeLength="597.24" waitingTime="7.00" waitingCount="1" stopTime="0.00" timeLoss="19.33" rerouteNo="1" devices="tripinfo_287 routing_287" vType="DEFAULT_VEHTYPE" speedFactor="1.02" vaporized=""/>
    <tripinfo id="239" depart="239.00" departLane="682551442#12_0" departPos="5.10" departSpeed="0.00" departDelay="0.00" arrival="362.00" arrivalLane="14026504#1_0" arrivalPos="40.60" arrivalSpeed="13.48" duration="123.00" routeLength="1464.60" waitingTime="0.00" waitingCount="0" stopTime="0.00" timeLoss="17.40" rerouteNo="1" devices="tripinfo_239 routing_239" vType="DEFAULT_VEHTYPE" speedFactor="1.00" vaporized=""/>
    <tripinfo id="263" depart="263.00" departLane="683047939#1_0" departPos="5.10" departSpeed="0.00" departDelay="0.00" arrival="371.00" arrivalLane="-14026096#3_0" arrivalPos="41.07" arrivalSpeed="13.37" duration="108.00" routeLength="1139.15" waitingTime="0.00" waitingCount="0" stopTime="0.00" timeLoss="21.67" rerouteNo="1" devices="tripinfo_263 routing_263" vType="DEFAULT_VEHTYPE" speedFactor="0.97" vaporized=""/>
    <tripinfo id="316" depart="316.00" departLane="-14026504#2_0" departPos="5.10" departSpeed="0.00" departDelay="0.00" arrival="373.00" arrivalLane="-14025159#4_0" arrivalPos="41.57" arrivalSpeed="9.64" duration="57.00" routeLength="460.58" waitingTime="0.00" waitingCount="0" stopTime="0.00" timeLoss="11.55" rerouteNo="1" devices="tripinfo_316 routing_316" vType="DEFAULT_VEHTYPE" speedFactor="0.91" vaporized=""/>
    <tripinfo id="293" depart="296.00" departLane="-683047946#6_0" departPos="5.10" departSpeed="0.00" departDelay="3.00" arrival="375.00" arrivalLane="14025222#2_0" arrivalPos="109.65" arrivalSpeed="9.82" duration="79.00" routeLength="698.04" waitingTime="2.00" waitingCount="1" stopTime="0.00" timeLoss="21.77" rerouteNo="1" devices="tripinfo_293 routing_293" vType="DEFAULT_VEHTYPE" speedFactor="0.94" vaporized=""/>
    <tripinfo id="252" depart="252.00" departLane="-14019622#0_0" departPos="5.10" departSpeed="0.00" departDelay="0.00" arrival="378.00" arrivalLane="14025635_0" arrivalPos="98.31" arrivalSpeed="13.56" duration="126.00" routeLength="1291.29" waitingTime="0.00" waitingCount="0" stopTime="0.00" timeLoss="17.79" rerouteNo="1" devices="tripinfo_252 routing_252" vType="DEFAULT_VEHTYPE" speedFactor="1.00" vaporized=""/>
    <tripinfo id="237" depart="239.00" departLane="-683043814#3_0" departPos="5.10" departSpeed="0.00" departDelay="2.00" arrival="383.00" arrivalLane="682553780_0" arrivalPos="116.65" arrivalSpeed="25.79" duration="144.00" routeLength="1572.77" waitingTime="3.00" waitingCount="1" stopTime="0.00" timeLoss="33.30" rerouteNo="1" devices="tripinfo_237 routing_237" vType="DEFAULT_VEHTYPE" speedFactor="1.10" vaporized=""/>
    <tripinfo id="289" depart="289.00" departLane="-683044783#5_0" departPos="5.10" departSpeed="0.00" departDelay="0.00" arrival="398.00" arrivalLane="14026314_0" arrivalPos="264.42" arrivalSpeed="12.42" duration="109.00" routeLength="1028.74" waitingTime="0.00" waitingCount="0" stopTime="0.00" timeLoss="15.04" rerouteNo="1" devices="tripinfo_289 routing_289" vType="DEFAULT_VEHTYPE" speedFactor="0.99" vaporized=""/>
    <tripinfo id="371" depart="371.00" departLane="-14027172#4_0" departPos="1.10" departSpeed="0.00" departDelay="0.00" arrival="401.00" arrivalLane="14026096#5_0" arrivalPos="0.20" arrivalSpeed="12.92" duration="30.00" routeLength="311.16" waitingTime="0.00" waitingCount="0" stopTime="0.00" timeLoss="5.76" rerouteNo="1" devices="tripinfo_371 routing_371" vType="DEFAULT_VEHTYPE" speedFactor="0.97" vaporized=""/>
    <tripinfo id="273" depart="273.00" departLane="683047943#1_0" departPos="5.10" departSpeed="0.00" departDelay="0.00" arrival="408.00" arrivalLane="-682553779#1_0" arrivalPos="81.05" arrivalSpeed="31.90" duration="135.00" routeLength="2229.66" waitingTime="0.00" waitingCount="0" stopTime="0.00" timeLoss="16.27" rerouteNo="1" devices="tripinfo_273 routing_273" vType="DEFAULT_VEHTYPE" speedFactor="1.12" vaporized=""/>
    <tripinfo id="354" depart="354.00" departLane="-14026504#5_0" departPos="5.10" departSpeed="0.00" departDelay="0.00" arrival="409.00" arrivalLane="-14025222#3_0" arrivalPos="110.11" arrivalSpeed="10.47" duration="55.00" routeLength="539.07" waitingTime="0.00" waitingCount="0" stopTime="0.00" timeLoss="11.38" rerouteNo="1" devices="tripinfo_354 routing_354" vType="DEFAULT_VEHTYPE" speedFactor="0.98" vaporized=""/>
    <tripinfo id="356" depart="356.00" departLane="683044783#4_0" departPos="5.10" departSpeed="0.00" departDelay="0.00" arrival="411.00" arrivalLane="14019571#0_0" arrivalPos="39.18" arrivalSpeed="12.71" duration="55.00" routeLength="542.70" waitingTime="0.00" waitingCount="0" stopTime="0.00" timeLoss="7.22" rerouteNo="1" devices="tripinfo_356 routing_356" vType="DEFAULT_VEHTYPE" speedFactor="1.01" vaporized=""/>
    <tripinfo id="261" depart="261.00" departLane="14025708#1_0" departPos="5.10" departSpeed="0.00" departDelay="0.00" arrival="412.00" arrivalLane="14026504#9_0" arrivalPos="47.48" arrivalSpeed="13.31" duration="151.00" routeLength="1835.98" waitingTime="0.00" waitingCount="0" stopTime="0.00" timeLoss="24.26" rerouteNo="1" devices="tripinfo_261 routing_261" vType="DEFAULT_VEHTYPE" speedFactor="1.02" vaporized=""/>
    <tripinfo id="368" depart="368.00" departLane="14019569#2_0" departPos="5.10" departSpeed="0.00" departDelay="0.00" arrival="416.00" arrivalLane="-14025005_0" arrivalPos="30.47" arrivalSpeed="12.61" duration="48.00" routeLength="450.00" waitingTime="0.00" waitingCount="0" stopTime="0.00" timeLoss="11.41" rerouteNo="1" devices="tripinfo_368 routing_368" vType="DEFAULT_VEHTYPE" speedFactor="1.00" vaporized=""/>
    <tripinfo id="327" depart="327.00" departLane="14027562#0_0" departPos="5.10" departSpeed="0.00" departDelay="0.00" arrival="418.00" arrivalLane="-683043808#0_0" arrivalPos="109.19" arrivalSpeed="10.94" duration="91.00" routeLength="1143.72" waitingTime="0.00" waitingCount="0" stopTime="0.00" timeLoss="20.24" rerouteNo="1" devices="tripinfo_327 routing_327" vType="DEFAULT_VEHTYPE" speedFactor="1.02" vaporized=""/>
    <tripinfo id="333" depart="333.00" departLane="14026768#1_0" departPos="5.10" departSpeed="0.00" departDelay="0.00" arrival="430.00" arrivalLane="-14026251#2_0" arrivalPos="41.28" arrivalSpeed="13.46" duration="97.00" routeLength="1077.56" waitingTime="0.00" waitingCount="0" stopTime="0.00" timeLoss="12.00" rerouteNo="1" devices="tripinfo_333 routing_333" vType="DEFAULT_VEHTYPE" speedFactor="1.06" vaporized=""/>